Title: CKT9
Date: Wed Oct 18 15:09:53 2017
Plotname: Transient analysis
Flags: real
No. Variables: 6
No. Points: 251     
Command: version 4.3.1
Variables:
 0 time S
 1 v(7) V
 2 v(11) V
 3 v(15) V
 4 v(22) V
 5 v(VIN) V
Values:
 0	0.000000000000000e+00
	0.000000000000000e+00
	0.000000000000000e+00
	0.000000000000000e+00
	0.000000000000000e+00
	0.000000000000000e+00
 1	1.000000000000000e-12
	8.122522702974285e-07
	8.188048721459812e-07
	8.188048721470461e-07
	8.188048721470462e-07
	0.000000000000000e+00
 2	2.000000000000000e-12
	2.296537950480603e-06
	2.386272141037289e-06
	2.386272146508404e-06
	2.386272146508406e-06
	0.000000000000000e+00
 3	3.000000000000000e-12
	3.493572490833060e-06
	3.836290045072254e-06
	3.836290228941218e-06
	3.836290228941257e-06
	0.000000000000000e+00
 4	4.000000000000000e-12
	4.322420081752245e-06
	5.144679896542088e-06
	5.144681935497700e-06
	5.144681935498475e-06
	0.000000000000000e+00
 5	5.000000000000000e-12
	4.752240566781013e-06
	6.292156973952929e-06
	6.292170817985378e-06
	6.292170817995189e-06
	0.000000000000000e+00
 6	5.999999999999999e-12
	4.806179312345301e-06
	7.263517494727399e-06
	7.263586325541127e-06
	7.263586325630426e-06
	0.000000000000000e+00
 7	6.999999999999999e-12
	4.551139809485401e-06
	8.047740695630099e-06
	8.048013742644018e-06
	8.048013743280028e-06
	0.000000000000000e+00
 8	8.000000000000000e-12
	4.080883409026440e-06
	8.637944323482465e-06
	8.638853204284693e-06
	8.638853208015987e-06
	0.000000000000000e+00
 9	9.000000000000000e-12
	3.496474258779718e-06
	9.031156963760520e-06
	9.033780929262223e-06
	9.033780947921959e-06
	0.000000000000000e+00
 10	9.999999999999999e-12
	2.888269007557926e-06
	9.227883504685615e-06
	9.234608748415271e-06
	9.234608829931748e-06
	5.206008686296708e-14
 11	1.100000000000000e-11
	2.322878052004176e-06
	9.231475406796834e-06
	9.247043037104411e-06
	9.247043353962167e-06
	5.183388889537454e-12
 12	1.200000000000000e-11
	1.837065142727915e-06
	9.047374738279117e-06
	9.080350379346816e-06
	9.080351490993230e-06
	2.640569981512794e-10
 13	1.300000000000000e-11
	1.438951054003127e-06
	8.682369165780410e-06
	8.746943545830945e-06
	8.746947106270117e-06
	8.730904769614864e-09
 14	1.400000000000000e-11
	1.118245629490130e-06
	8.144052934157405e-06
	8.261906518739919e-06
	8.261917026473985e-06
	1.875229435856467e-07
 15	1.500000000000000e-11
	9.020391545453979e-07
	7.440709432312116e-06
	7.642480437664176e-06
	7.642509233128957e-06
	2.595065916625587e-06
 16	1.600000000000000e-11
	1.240768037152891e-06
	6.581790642840792e-06
	6.907532968885514e-06
	6.907606717102752e-06
	2.283081671699713e-05
 17	1.700000000000000e-11
	4.828542259358114e-06
	5.579058402994311e-06
	6.077031691609903e-06
	6.077209178792385e-06
	1.259254721259536e-04
 18	1.800000000000000e-11
	2.119008979452491e-05
	4.448289664592099e-06
	5.171538098986579e-06
	5.171941372792427e-06
	4.304361196777401e-04
 19	1.900000000000000e-11
	7.004017501727026e-05
	3.211295778307956e-06
	4.211733572977825e-06
	4.212602122866170e-06
	9.042481011787965e-04
 20	2.000000000000000e-11
	1.712173096017293e-04
	1.898003051504123e-06
	3.217983319586722e-06
	3.219762649185240e-06
	1.161049020947434e-03
 21	2.100000000000000e-11
	3.210747026512290e-04
	5.487290063050457e-07
	2.209939954464067e-06
	2.213417610585021e-06
	9.080018391679107e-04
 22	2.200000000000000e-11
	4.843827329414929e-04
	-7.827747920750727e-07
	1.206066208404883e-06
	1.212557246564969e-06
	4.307132910376822e-04
 23	2.300000000000000e-11
	6.146962645456070e-04
	-2.026351507751294e-06
	2.231007491313266e-07
	2.346784721672343e-07
	1.255054221830857e-04
 24	2.400000000000000e-11
	6.668892315028905e-04
	-3.074011680739424e-06
	-7.230134109680116e-07
	-7.031828547442230e-07
	2.208924688286361e-05
 25	2.500000000000000e-11
	6.220660764816217e-04
	-3.754040863103164e-06
	-1.618555240614691e-06
	-1.585816797044042e-06
	2.266200255358699e-06
 26	2.600000000000000e-11
	5.081760992375051e-04
	-3.766097575113185e-06
	-2.450968743426406e-06
	-2.398681120745946e-06
	1.465211943600339e-07
 27	2.700000000000000e-11
	3.588118687261967e-04
	-2.584797106764403e-06
	-3.209331333835846e-06
	-3.128414679941112e-06
	7.235640774542799e-09
 28	2.800000000000000e-11
	1.986255814428826e-04
	4.190669572063422e-07
	-3.891151304561045e-06
	-3.770899644832141e-06
	1.579481739549375e-10
 29	2.900000000000000e-11
	5.439715062987978e-05
	6.422387959382638e-06
	-4.485370336991181e-06
	-4.312279006911612e-06
	2.574758944809388e-12
 30	3.000000000000000e-11
	-5.203563875460658e-05
	1.657615067735536e-05
	-4.991244201777274e-06
	-4.751233309687712e-06
	1.771261137361477e-14
 31	3.100000000000000e-11
	-1.071760393654251e-04
	3.259441293913251e-05
	-5.399570280720186e-06
	-5.078574158840371e-06
	0.000000000000000e+00
 32	3.200000000000001e-11
	-1.148611767587736e-04
	5.547839788371374e-05
	-5.709971661008176e-06
	-5.298552229481442e-06
	0.000000000000000e+00
 33	3.300000000000001e-11
	-8.517903870452207e-05
	8.629200753563609e-05
	-5.912103098123827e-06
	-5.409506457423468e-06
	0.000000000000000e+00
 34	3.400000000000001e-11
	-3.538063844144684e-05
	1.253421448051269e-04
	-5.992077351858023e-06
	-5.414405341575212e-06
	0.000000000000000e+00
 35	3.500000000000001e-11
	1.648492851304549e-05
	1.723814670716926e-04
	-5.920052034658686e-06
	-5.314525741332634e-06
	0.000000000000000e+00
 36	3.600000000000002e-11
	5.557806227609562e-05
	2.256743572367582e-04
	-5.654267888055056e-06
	-5.117534390433050e-06
	0.000000000000000e+00
 37	3.700000000000002e-11
	7.421720806777508e-05
	2.819281821932036e-04
	-5.133156420851402e-06
	-4.833050034937788e-06
	0.000000000000000e+00
 38	3.800000000000002e-11
	7.069778540797338e-05
	3.349995161243144e-04
	-4.248689043394527e-06
	-4.468197361826387e-06
	0.000000000000000e+00
 39	3.900000000000003e-11
	4.992305502167716e-05
	3.728502993805444e-04
	-2.833886463930856e-06
	-4.032388256533621e-06
	0.000000000000000e+00
 40	4.000000000000003e-11
	2.151469608504529e-05
	3.828118489592205e-04
	-7.263836852991477e-07
	-3.541104478035054e-06
	0.000000000000000e+00
 41	4.100000000000003e-11
	-5.714511223318444e-06
	3.565843608287722e-04
	2.341830957719050e-06
	-3.003960698301341e-06
	0.000000000000000e+00
 42	4.200000000000004e-11
	-2.413580781119172e-05
	2.990355607276753e-04
	6.671787833173807e-06
	-2.433474023029768e-06
	0.000000000000000e+00
 43	4.300000000000004e-11
	-2.887410186995120e-05
	2.225728839214171e-04
	1.274804128756695e-05
	-1.841343654247387e-06
	0.000000000000000e+00
 44	4.400000000000004e-11
	-2.189002984542638e-05
	1.414153757580071e-04
	2.076186448300973e-05
	-1.241835644983915e-06
	0.000000000000000e+00
 45	4.500000000000004e-11
	-6.214324899970414e-06
	6.469063852442073e-05
	3.117292857126695e-05
	-6.456789160567561e-07
	0.000000000000000e+00
 46	4.600000000000005e-11
	1.188385019999664e-05
	2.077667227804705e-06
	4.455202705404324e-05
	-6.652532443327002e-08
	0.000000000000000e+00
 47	4.700000000000005e-11
	2.676191689808647e-05
	-4.327366502910782e-05
	6.076517355239766e-05
	4.881989132106882e-07
	0.000000000000000e+00
 48	4.800000000000005e-11
	3.342083566655057e-05
	-6.525012016380795e-05
	8.059067166552281e-05
	1.003237290998233e-06
	0.000000000000000e+00
 49	4.900000000000006e-11
	3.186507869319570e-05
	-6.774518610289921e-05
	1.035843205498499e-04
	1.477100529693678e-06
	0.000000000000000e+00
 50	5.000000000000006e-11
	2.214275194110893e-05
	-5.010650462537065e-05
	1.304217918991106e-04
	1.892628433561423e-06
	0.000000000000000e+00
 51	5.100000000000006e-11
	9.001571423301149e-06
	-2.047859518618582e-05
	1.602040550109051e-04
	2.253112985070153e-06
	0.000000000000000e+00
 52	5.200000000000007e-11
	-3.775594094901844e-06
	1.550481604764837e-05
	1.921081948697413e-04
	2.553348588339680e-06
	0.000000000000000e+00
 53	5.300000000000007e-11
	-1.207945529381115e-05
	5.069370130014150e-05
	2.238477695417404e-04
	2.784404809112643e-06
	0.000000000000000e+00
 54	5.400000000000007e-11
	-1.452311520497456e-05
	7.880030203747000e-05
	2.512097701853892e-04
	2.956753152876372e-06
	0.000000000000000e+00
 55	5.500000000000008e-11
	-1.077676059494462e-05
	9.456620823770846e-05
	2.670880087335454e-04
	3.069796479444585e-06
	0.000000000000000e+00
 56	5.600000000000008e-11
	-2.606864341300173e-06
	9.463468122335149e-05
	2.621068728404029e-04
	3.128726988344212e-06
	0.000000000000000e+00
 57	5.700000000000008e-11
	6.544062903350708e-06
	8.117975985644653e-05
	2.334919492252962e-04
	3.151774062800376e-06
	0.000000000000000e+00
 58	5.800000000000008e-11
	1.384449212694294e-05
	5.751453890374757e-05
	1.829346055820686e-04
	3.156378712862063e-06
	0.000000000000000e+00
 59	5.900000000000008e-11
	1.705710831467904e-05
	2.893771222211193e-05
	1.175860790074827e-04
	3.167662424853061e-06
	0.000000000000000e+00
 60	6.000000000000008e-11
	1.555546080912188e-05
	2.043217924049493e-06
	4.861244656706054e-05
	3.218824043866145e-06
	0.000000000000000e+00
 61	6.100000000000007e-11
	9.876125141757483e-06
	-1.638171487145644e-05
	-1.220602299990871e-05
	3.362825606154811e-06
	0.000000000000000e+00
 62	6.200000000000007e-11
	2.484091946771418e-06
	-2.323030789833173e-05
	-5.687428740949628e-05
	3.651096823277170e-06
	0.000000000000000e+00
 63	6.300000000000007e-11
	-4.316423492790321e-06
	-1.827719782887446e-05
	-8.128683123968230e-05
	4.148749965581559e-06
	0.000000000000000e+00
 64	6.400000000000006e-11
	-8.722540016053159e-06
	-3.921600555229106e-06
	-8.499866508826525e-05
	4.926977311579029e-06
	0.000000000000000e+00
 65	6.500000000000006e-11
	-9.552642239202506e-06
	1.568005038804938e-05
	-6.986204554255442e-05
	6.088818372188606e-06
	0.000000000000000e+00
 66	6.600000000000006e-11
	-6.900137837430114e-06
	3.459615735614764e-05
	-4.182555025397083e-05
	7.746035933334358e-06
	0.000000000000000e+00
 67	6.700000000000005e-11
	-2.024041947159159e-06
	4.770941614289798e-05
	-8.375761185850952e-06
	1.000364795298264e-05
	0.000000000000000e+00
 68	6.800000000000005e-11
	3.380513932745838e-06
	5.169504093845631e-05
	2.371457297682493e-05
	1.299214058673270e-05
	0.000000000000000e+00
 69	6.900000000000005e-11
	7.574312964817259e-06
	4.570802182262140e-05
	4.900607765262086e-05
	1.685338649922531e-05
	0.000000000000000e+00
 70	7.000000000000004e-11
	9.331828598653970e-06
	3.166895110413818e-05
	6.437679616634605e-05
	2.174014782140136e-05
	0.000000000000000e+00
 71	7.100000000000004e-11
	8.287315726577485e-06
	1.367076350230365e-05
	6.923716744167061e-05
	2.782006335213315e-05
	0.000000000000000e+00
 72	7.200000000000004e-11
	4.980097036363950e-06
	-3.227053512906196e-06
	6.512101359415322e-05
	3.527976601989735e-05
	0.000000000000000e+00
 73	7.300000000000003e-11
	6.167070825484762e-07
	-1.446849053511800e-05
	5.487873923704656e-05
	4.433086173133895e-05
	0.000000000000000e+00
 74	7.400000000000003e-11
	-3.355382964315522e-06
	-1.727804205184615e-05
	4.176145845509300e-05
	5.521746383207162e-05
	0.000000000000000e+00
 75	7.500000000000003e-11
	-5.716527128285768e-06
	-1.136340012256609e-05
	2.866830542238632e-05
	6.822418402915338e-05
	0.000000000000000e+00
 76	7.600000000000002e-11
	-5.837892734488440e-06
	1.129366625844564e-06
	1.770805713116835e-05
	8.368153503173853e-05
	0.000000000000000e+00
 77	7.700000000000002e-11
	-3.833952938451797e-06
	1.634065505289527e-05
	1.008051302718685e-05
	1.019606269743005e-04
	0.000000000000000e+00
 78	7.800000000000001e-11
	-4.724872520553219e-07
	2.985339095413421e-05
	6.185169054505057e-06
	1.234367451018608e-04
	0.000000000000000e+00
 79	7.900000000000001e-11
	3.112376999456832e-06
	3.794711372155658e-05
	5.834282889330036e-06
	1.483758711693350e-04
	0.000000000000000e+00
 80	8.000000000000001e-11
	5.800676283571673e-06
	3.861627336046513e-05
	8.468274635412920e-06
	1.766586445949761e-04
	0.000000000000000e+00
 81	8.100000000000000e-11
	6.835631222037533e-06
	3.208176770356637e-05
	1.331744694556648e-05
	2.072364391745229e-04
	0.000000000000000e+00
 82	8.200000000000000e-11
	6.034639440023446e-06
	2.065049895696242e-05
	1.950168299905446e-05
	2.373434452112187e-04
	0.000000000000000e+00
 83	8.300000000000000e-11
	3.809484427358259e-06
	7.886363218035015e-06
	2.610895620908074e-05
	2.622351461267642e-04
	0.000000000000000e+00
 84	8.399999999999999e-11
	9.253586023919789e-07
	-2.553172049141362e-06
	3.227965800586134e-05
	2.758407356015217e-04
	0.000000000000000e+00
 85	8.499999999999999e-11
	-1.660195639018224e-06
	-7.569159482362107e-06
	3.718098057815123e-05
	2.722462075036493e-04
	0.000000000000000e+00
 86	8.599999999999999e-11
	-2.915367523332929e-06
	-4.973336258492683e-06
	3.987626672901397e-05
	2.473479626100008e-04
	0.000000000000000e+00
 87	8.699999999999998e-11
	-2.666504458728220e-06
	3.114217121662939e-06
	4.038004869477363e-05
	2.078225459608970e-04
	0.000000000000000e+00
 88	8.799999999999998e-11
	-1.053487340612420e-06
	1.423824604616513e-05
	3.875807516031588e-05
	1.589482898243754e-04
	0.000000000000000e+00
 89	8.899999999999998e-11
	1.334726463671260e-06
	2.489604398769389e-05
	3.553874336116421e-05
	1.067581317288249e-04
	0.000000000000000e+00
 90	8.999999999999997e-11
	3.667257781232893e-06
	3.194630425104020e-05
	3.170683367007021e-05
	5.692108104088989e-05
	0.000000000000000e+00
 91	9.099999999999997e-11
	5.213729619313900e-06
	3.343688211759153e-05
	2.836362621197561e-05
	1.432344170326009e-05
	0.000000000000000e+00
 92	9.199999999999997e-11
	5.524833610632597e-06
	2.913382406233880e-05
	2.658226394181655e-05
	-1.702421500659037e-05
	0.000000000000000e+00
 93	9.299999999999996e-11
	4.569239317478490e-06
	2.054361737705539e-05
	2.714079358819886e-05
	-3.455138133328780e-05
	0.000000000000000e+00
 94	9.399999999999996e-11
	2.718481381350639e-06
	1.038347306957800e-05
	3.032749043100796e-05
	-3.753999099619015e-05
	0.000000000000000e+00
 95	9.499999999999996e-11
	6.047824467514753e-07
	1.701398374232259e-06
	3.585719286011025e-05
	-2.726620365226391e-05
	0.000000000000000e+00
 96	9.599999999999995e-11
	-1.095615397772437e-06
	-3.066541272005005e-06
	4.292980102735813e-05
	-6.827115871042740e-06
	0.000000000000000e+00
 97	9.699999999999995e-11
	-1.880521859085345e-06
	-2.806857900093254e-06
	5.042306980033959e-05
	1.934138509696654e-05
	0.000000000000000e+00
 98	9.799999999999995e-11
	-1.571965440993022e-06
	2.000269688288453e-06
	5.717302396979773e-05
	4.621091807704256e-05
	0.000000000000000e+00
 99	9.899999999999994e-11
	-3.546030133958916e-07
	9.509848224425108e-06
	6.226999143548313e-05
	6.903583883061530e-05
	0.000000000000000e+00
 100	9.999999999999994e-11
	1.303598903680736e-06
	1.714494703861877e-05
	6.529388613852971e-05
	8.414664760259238e-05
	0.000000000000000e+00
 101	1.009999999999999e-10
	2.816712694293996e-06
	2.242121883157859e-05
	6.642751180926114e-05
	8.948469947697704e-05
	0.000000000000000e+00
 102	1.019999999999999e-10
	3.674978417969361e-06
	2.370449780743722e-05
	6.641442318758764e-05
	8.482466037005433e-05
	0.000000000000000e+00
 103	1.029999999999999e-10
	3.604432426162350e-06
	2.067389015625839e-05
	6.636244462951218e-05
	7.172069229857692e-05
	0.000000000000000e+00
 104	1.039999999999999e-10
	2.643070443687591e-06
	1.436026623455358e-05
	6.743161427847551e-05
	5.320284850677779e-05
	0.000000000000000e+00
 105	1.049999999999999e-10
	1.113639840779889e-06
	6.766486735696528e-06
	7.047981161796915e-05
	3.322313841384518e-05
	0.000000000000000e+00
 106	1.059999999999999e-10
	-4.929909912474226e-07
	2.068178855796910e-07
	7.576011186700093e-05
	1.590328196031066e-05
	0.000000000000000e+00
 107	1.069999999999999e-10
	-1.682269959013620e-06
	-3.415960662875529e-06
	8.276170779242457e-05
	4.735861591538316e-06
	0.000000000000000e+00
 108	1.079999999999999e-10
	-2.113545699309967e-06
	-3.169786031143649e-06
	9.025837347525517e-05
	1.935283771058136e-06
	0.000000000000000e+00
 109	1.089999999999999e-10
	-1.701065375224073e-06
	6.746347351491070e-07
	9.657750348030567e-05
	8.086821698465546e-06
	0.000000000000000e+00
 110	1.099999999999999e-10
	-6.290595473785017e-07
	6.793420587329239e-06
	1.000340042947583e-04
	2.214406070350680e-05
	0.000000000000000e+00
 111	1.109999999999999e-10
	7.197378645155419e-07
	1.327481010891418e-05
	9.940171738081746e-05
	4.173409691569666e-05
	0.000000000000000e+00
 112	1.119999999999999e-10
	1.895316189488314e-06
	1.824027015428925e-05
	9.425615509584777e-05
	6.367332618198318e-05
	0.000000000000000e+00
 113	1.129999999999999e-10
	2.526909792326312e-06
	2.042165433593569e-05
	8.505743246677194e-05
	8.457817039138147e-05
	0.000000000000000e+00
 114	1.139999999999999e-10
	2.437651253193096e-06
	1.951776942426479e-05
	7.295132104518147e-05
	1.014689958938103e-04
	0.000000000000000e+00
 115	1.149999999999999e-10
	1.692516476744934e-06
	1.623032562951106e-05
	5.938688130492851e-05
	1.122897564707096e-04
	0.000000000000000e+00
 116	1.159999999999999e-10
	5.674653307716121e-07
	1.198430869466041e-05
	4.570814076740182e-05
	1.162645419653564e-04
	0.000000000000000e+00
 117	1.169999999999999e-10
	-5.468358434389578e-07
	8.436472907723627e-06
	3.285672214466594e-05
	1.139880120424622e-04
	0.000000000000000e+00
 118	1.179999999999999e-10
	-1.273283569497874e-06
	6.935801373325048e-06
	2.125732630032177e-05
	1.071715465364590e-04
	0.000000000000000e+00
 119	1.189999999999999e-10
	-1.366636180436301e-06
	8.105056264053922e-06
	1.088898222695891e-05
	9.809042547734329e-05
	0.000000000000000e+00
 120	1.199999999999999e-10
	-7.849785054997861e-07
	1.166590201438727e-05
	1.491475166341639e-06
	8.892454140263783e-05
	0.000000000000000e+00
 121	1.209999999999999e-10
	3.060331147071489e-07
	1.654904412395056e-05
	-7.176185790089559e-06
	8.122895638331984e-05
	0.000000000000000e+00
 122	1.219999999999999e-10
	1.594389231627950e-06
	2.124118353185627e-05
	-1.511733936548595e-05
	7.568321339247313e-05
	0.000000000000000e+00
 123	1.229999999999999e-10
	2.726085449241906e-06
	2.424982082193656e-05
	-2.199552409420880e-05
	7.213194379311190e-05
	0.000000000000000e+00
 124	1.239999999999999e-10
	3.417711096591947e-06
	2.453641746775841e-05
	-2.718765587524014e-05
	6.983052308401248e-05
	0.000000000000000e+00
 125	1.249999999999999e-10
	3.541343167279301e-06
	2.178669233910146e-05
	-2.998206517039491e-05
	6.777578503364960e-05
	0.000000000000000e+00
 126	1.259999999999998e-10
	3.156155149432084e-06
	1.644640336975175e-05
	-2.986207069072848e-05
	6.501669801371489e-05
	0.000000000000000e+00
 127	1.269999999999998e-10
	2.479068225588607e-06
	9.529833050803183e-06
	-2.678182625883490e-05
	6.087734510958213e-05
	0.000000000000000e+00
 128	1.279999999999998e-10
	1.806295150613036e-06
	2.278137609745942e-06
	-2.133458820119399e-05
	5.506511572387471e-05
	0.000000000000000e+00
 129	1.289999999999998e-10
	1.412544197229972e-06
	-4.216220734888435e-06
	-1.474019561496432e-05
	4.766960593271529e-05
	0.000000000000000e+00
 130	1.299999999999998e-10
	1.460495036229890e-06
	-9.302305099636085e-06
	-8.632666548995426e-06
	3.907805264332137e-05
	0.000000000000000e+00
 131	1.309999999999998e-10
	1.948529507367464e-06
	-1.289729441868604e-05
	-4.692656972898631e-06
	2.984228827160788e-05
	0.000000000000000e+00
 132	1.319999999999998e-10
	2.711540140920708e-06
	-1.541799596264755e-05
	-4.220715907658166e-06
	2.053363738279065e-05
	0.000000000000000e+00
 133	1.329999999999998e-10
	3.472459356536763e-06
	-1.754926055569199e-05
	-7.768905682939345e-06
	1.161823967219957e-05
	0.000000000000000e+00
 134	1.339999999999998e-10
	3.926508164729830e-06
	-1.993139997230711e-05
	-1.493527132805887e-05
	3.376542007826421e-06
	0.000000000000000e+00
 135	1.349999999999998e-10
	3.830872119034585e-06
	-2.287313886639155e-05
	-2.438458172135573e-05
	-4.122099599991554e-06
	0.000000000000000e+00
 136	1.359999999999998e-10
	3.072178732367308e-06
	-2.618739507580516e-05
	-3.410344077755394e-05
	-1.099307176211597e-05
	0.000000000000000e+00
 137	1.369999999999998e-10
	1.692453791511502e-06
	-2.920691338766532e-05
	-4.184142351812567e-05
	-1.747373703625160e-05
	0.000000000000000e+00
 138	1.379999999999998e-10
	-1.318390215767418e-07
	-3.097814794146543e-05
	-4.564083319248249e-05
	-2.384591943063802e-05
	0.000000000000000e+00
 139	1.389999999999998e-10
	-2.148156824465275e-06
	-3.057322179434931e-05
	-4.432409787088036e-05
	-3.036478159931085e-05
	0.000000000000000e+00
 140	1.399999999999998e-10
	-4.102934583106998e-06
	-2.741995810279801e-05
	-3.780393184709653e-05
	-3.720888919905934e-05
	0.000000000000000e+00
 141	1.409999999999998e-10
	-5.808505607635374e-06
	-2.154241858205612e-05
	-2.712160561706464e-05
	-4.445679587452187e-05
	0.000000000000000e+00
 142	1.419999999999998e-10
	-7.180928733992953e-06
	-1.363237726397738e-05
	-1.419817271321565e-05
	-5.208616492448883e-05
	0.000000000000000e+00
 143	1.429999999999998e-10
	-8.238119990420299e-06
	-4.925840946059451e-06
	-1.370446685729449e-06
	-5.998511916841412e-05
	0.000000000000000e+00
 144	1.439999999999998e-10
	-9.061061976904359e-06
	3.081396121757125e-06
	9.159031472393996e-06
	-6.796395723934219e-05
	0.000000000000000e+00
 145	1.449999999999998e-10
	-9.732987317599958e-06
	8.998798921257422e-06
	1.581574768209947e-05
	-7.575900119141973e-05
	0.000000000000000e+00
 146	1.459999999999998e-10
	-1.027852318193478e-05
	1.188544739785220e-05
	1.797238747273730e-05
	-8.302810457074263e-05
	0.000000000000000e+00
 147	1.469999999999998e-10
	-1.062470866684231e-05
	1.148012626971824e-05
	1.602399926344696e-05
	-8.934669404145942e-05
	0.000000000000000e+00
 148	1.479999999999998e-10
	-1.059871160844766e-05
	8.256766453464993e-06
	1.121338334924705e-05
	-9.422004189828874e-05
	0.000000000000000e+00
 149	1.489999999999998e-10
	-9.965336965278013e-06
	3.294457303569215e-06
	5.265244314691654e-06
	-9.712681109683327e-05
	0.000000000000000e+00
 150	1.499999999999998e-10
	-8.494808794244281e-06
	-1.997439192721146e-06
	-6.621831986819655e-08
	-9.759750521609451e-05
	0.000000000000000e+00
 151	1.509999999999998e-10
	-6.041760996091348e-06
	-6.221360943936141e-06
	-3.417211792105232e-06
	-9.531195777637147e-05
	0.000000000000000e+00
 152	1.519999999999998e-10
	-2.612705883393423e-06
	-8.310196054289724e-06
	-4.100992928942893e-06
	-9.018309608774703e-05
	0.000000000000000e+00
 153	1.529999999999998e-10
	1.597712472797639e-06
	-7.744587447256278e-06
	-2.202577184631883e-06
	-8.239307781811771e-05
	0.000000000000000e+00
 154	1.539999999999998e-10
	6.212929851562373e-06
	-4.623403641913157e-06
	1.524175376897680e-06
	-7.236647443942110e-05
	0.000000000000000e+00
 155	1.549999999999997e-10
	1.072331145423803e-05
	4.161019114989998e-07
	5.912643442895956e-06
	-6.069227500091803e-05
	0.000000000000000e+00
 156	1.559999999999997e-10
	1.456726919268118e-05
	6.392638535861453e-06
	9.713619557930875e-06
	-4.802459786494368e-05
	0.000000000000000e+00
 157	1.569999999999997e-10
	1.722686817971524e-05
	1.222853162196889e-05
	1.190952088716329e-05
	-3.499242332205867e-05
	0.000000000000000e+00
 158	1.579999999999997e-10
	1.831741872199014e-05
	1.698388306643133e-05
	1.193615965964254e-05
	-2.213651347089913e-05
	0.000000000000000e+00
 159	1.589999999999997e-10
	1.765289681491451e-05
	2.002351373715144e-05
	9.767842181309875e-06
	-9.877824752542737e-06
	0.000000000000000e+00
 160	1.599999999999997e-10
	1.527565338045324e-05
	2.108831972779531e-05
	5.862084814764899e-06
	1.486997208621244e-06
	0.000000000000000e+00
 161	1.609999999999997e-10
	1.144777815129945e-05
	2.027181596267093e-05
	9.969873839810708e-07
	1.177059567811369e-05
	0.000000000000000e+00
 162	1.619999999999997e-10
	6.609914122618616e-06
	1.792724345768285e-05
	-3.942818237241014e-06
	2.086816575097523e-05
	0.000000000000000e+00
 163	1.629999999999997e-10
	1.318726516348675e-06
	1.454417441775189e-05
	-8.171368680460471e-06
	2.872641871197915e-05
	0.000000000000000e+00
 164	1.639999999999997e-10
	-3.824554813463079e-06
	1.063317399301573e-05
	-1.114967843225674e-05
	3.531522147303659e-05
	0.000000000000000e+00
 165	1.649999999999997e-10
	-8.244383875831350e-06
	6.644719019505093e-06
	-1.265152373861274e-05
	4.060792037657396e-05
	0.000000000000000e+00
 166	1.659999999999997e-10
	-1.145358575563683e-05
	2.930307553288643e-06
	-1.274598228488890e-05
	4.457426808823758e-05
	0.000000000000000e+00
 167	1.669999999999997e-10
	-1.310530323377961e-05
	-2.629315031784398e-07
	-1.171682071877274e-05
	4.718656742923899e-05
	0.000000000000000e+00
 168	1.679999999999997e-10
	-1.303238549451243e-05
	-2.781903657194975e-06
	-9.951009351498718e-06
	4.843577741956303e-05
	0.000000000000000e+00
 169	1.689999999999997e-10
	-1.127200036727613e-05
	-4.558628563127462e-06
	-7.830346045394724e-06
	4.835111588537780e-05
	0.000000000000000e+00
 170	1.699999999999997e-10
	-8.072044777633482e-06
	-5.611397654800646e-06
	-5.652477186372108e-06
	4.701542729474338e-05
	0.000000000000000e+00
 171	1.709999999999997e-10
	-3.875153741904335e-06
	-6.053087795000524e-06
	-3.594143519488290e-06
	4.456995257015950e-05
	0.000000000000000e+00
 172	1.719999999999997e-10
	7.232137520073743e-07
	-6.094518067204282e-06
	-1.715138295531964e-06
	4.120576230130458e-05
	0.000000000000000e+00
 173	1.729999999999997e-10
	5.043413602613674e-06
	-6.028085948903826e-06
	9.324948904019136e-09
	3.714363272140132e-05
	0.000000000000000e+00
 174	1.739999999999997e-10
	8.412960644097271e-06
	-6.182140259607642e-06
	1.644800684712396e-06
	3.260784524568616e-05
	0.000000000000000e+00
 175	1.749999999999997e-10
	1.027031125170280e-05
	-6.847800080658674e-06
	3.257707994810246e-06
	2.780102103867214e-05
	0.000000000000000e+00
 176	1.759999999999997e-10
	1.026475063889697e-05
	-8.192967762755172e-06
	4.888730797769451e-06
	2.288633520703179e-05
	0.000000000000000e+00
 177	1.769999999999997e-10
	8.332462569843104e-06
	-1.018802554559571e-05
	6.541628005172584e-06
	1.798084125403430e-05
	0.000000000000000e+00
 178	1.779999999999997e-10
	4.729832790805374e-06
	-1.256999998088981e-05
	8.183810586929790e-06
	1.316020932567460e-05
	0.000000000000000e+00
 179	1.789999999999997e-10
	1.130040157957285e-08
	-1.486502408320677e-05
	9.752577432172497e-06
	8.472023430206144e-06
	0.000000000000000e+00
 180	1.799999999999997e-10
	-5.050490557835432e-06
	-1.647393464400748e-05
	1.116188634611723e-05
	3.952724653092138e-06
	0.000000000000000e+00
 181	1.809999999999997e-10
	-9.592266557462017e-06
	-1.680684548019831e-05
	1.230773274125270e-05
	-3.572332239987221e-07
	0.000000000000000e+00
 182	1.819999999999997e-10
	-1.281413839279609e-05
	-1.543540652536989e-05
	1.307365245359147e-05
	-4.404424573560991e-06
	0.000000000000000e+00
 183	1.829999999999997e-10
	-1.413082927118074e-05
	-1.222219599858604e-05
	1.333974663401937e-05
	-8.121908917490684e-06
	0.000000000000000e+00
 184	1.839999999999996e-10
	-1.328857388914546e-05
	-7.389256025133199e-06
	1.299802088646680e-05
	-1.143663024184523e-05
	0.000000000000000e+00
 185	1.849999999999996e-10
	-1.042103670684169e-05
	-1.502231832874894e-06
	1.197400857627173e-05
	-1.428185886194163e-05
	0.000000000000000e+00
 186	1.859999999999996e-10
	-6.029559992643723e-06
	4.631236013802974e-06
	1.025088339385680e-05
	-1.661030374118658e-05
	0.000000000000000e+00
 187	1.869999999999996e-10
	-8.894439421231564e-07
	1.012693929255144e-05
	7.889262943608900e-06
	-1.840342108508557e-05
	0.000000000000000e+00
 188	1.879999999999996e-10
	4.099598146203497e-06
	1.421363209119121e-05
	5.035101393743694e-06
	-1.967373736925199e-05
	0.000000000000000e+00
 189	1.889999999999996e-10
	8.088362837085560e-06
	1.639936798754345e-05
	1.910088169135760e-06
	-2.045929971566519e-05
	0.000000000000000e+00
 190	1.899999999999996e-10
	1.044240581243674e-05
	1.657223396828437e-05
	-1.216601777408280e-06
	-2.081195157129684e-05
	0.000000000000000e+00
 191	1.909999999999996e-10
	1.086155022340497e-05
	1.500974283081543e-05
	-4.070826614348642e-06
	-2.078318003393557e-05
	0.000000000000000e+00
 192	1.919999999999996e-10
	9.429850697421602e-06
	1.229546057230381e-05
	-6.421017626983337e-06
	-2.041211434161935e-05
	0.000000000000000e+00
 193	1.929999999999996e-10
	6.586144504680979e-06
	9.166319906665709e-06
	-8.118973935835452e-06
	-1.971957777544732e-05
	0.000000000000000e+00
 194	1.939999999999996e-10
	3.022696787956404e-06
	6.331902230516230e-06
	-9.123029290774088e-06
	-1.871011201722606e-05
	0.000000000000000e+00
 195	1.949999999999996e-10
	-4.650230595652240e-07
	4.312687441761631e-06
	-9.497024036827429e-06
	-1.738125237828855e-05
	0.000000000000000e+00
 196	1.959999999999996e-10
	-3.144504632963263e-06
	3.336957000222762e-06
	-9.385146289275363e-06
	-1.573691103634506e-05
	0.000000000000000e+00
 197	1.969999999999996e-10
	-4.493098858611285e-06
	3.318545978098143e-06
	-8.969651414402022e-06
	-1.380032835212366e-05
	0.000000000000000e+00
 198	1.979999999999996e-10
	-4.295789244919525e-06
	3.915231760518622e-06
	-8.423471301960023e-06
	-1.162213746075193e-05
	0.000000000000000e+00
 199	1.989999999999996e-10
	-2.675387658772133e-06
	4.646415878191366e-06
	-7.871071612591806e-06
	-9.280615262711516e-06
	0.000000000000000e+00
 200	1.999999999999996e-10
	-5.166260498525861e-08
	5.034552756687131e-06
	-7.368085321122652e-06
	-6.873651627946612e-06
	0.000000000000000e+00
 201	2.009999999999996e-10
	2.958926003260090e-06
	4.731114248354728e-06
	-6.904134798847440e-06
	-4.504557031119547e-06
	0.000000000000000e+00
 202	2.019999999999996e-10
	5.679217651074788e-06
	3.595252589019062e-06
	-6.425854642037487e-06
	-2.265726974773774e-06
	0.000000000000000e+00
 203	2.029999999999996e-10
	7.513085176077445e-06
	1.709006491778242e-06
	-5.870866823589766e-06
	-2.248109994583472e-07
	0.000000000000000e+00
 204	2.039999999999996e-10
	8.063303052745883e-06
	-6.681496854345591e-07
	-5.200363690253064e-06
	1.582772596051455e-06
	0.000000000000000e+00
 205	2.049999999999996e-10
	7.202510555232316e-06
	-3.186072934109288e-06
	-4.418985624373114e-06
	3.153099000070948e-06
	0.000000000000000e+00
 206	2.059999999999996e-10
	5.085302282484010e-06
	-5.503120716439663e-06
	-3.575439323790168e-06
	4.505393219314641e-06
	0.000000000000000e+00
 207	2.069999999999996e-10
	2.102479418507204e-06
	-7.368346851177759e-06
	-2.744174783128032e-06
	5.668947167643792e-06
	0.000000000000000e+00
 208	2.079999999999996e-10