Title: CKT1
Date: Thu Oct 12 08:27:49 2017
Plotname: Transient analysis
Flags: real
No. Variables: 5
No. Points: 1001    
Command: version 4.3.1
Variables:
 0 time S
 1 v(DCOUT) V
 2 v(JTL1) V
 3 v(SFQIN) V
 4 v(VIN) V
Values:
 0	0.000000000000000e+00
	0.000000000000000e+00
	0.000000000000000e+00
	0.000000000000000e+00
	0.000000000000000e+00
 1	1.000000000000000e-12
	7.326942859317289e-06
	1.462577491242666e-05
	1.486301364225366e-05
	0.000000000000000e+00
 2	2.000000000000000e-12
	1.558163553148479e-05
	2.668477718915816e-05
	2.723023355568294e-05
	0.000000000000000e+00
 3	3.000000000000000e-12
	2.077183494595724e-05
	2.740903488928650e-05
	2.772002822016279e-05
	0.000000000000000e+00
 4	4.000000000000000e-12
	2.458789685273547e-05
	2.513714261347301e-05
	2.512178386823420e-05
	0.000000000000000e+00
 5	5.000000000000000e-12
	2.855760720965651e-05
	2.469861572697882e-05
	2.489664024281789e-05
	0.000000000000000e+00
 6	5.999999999999999e-12
	3.243630304711390e-05
	2.550755423329119e-05
	2.585147997714112e-05
	0.000000000000000e+00
 7	6.999999999999999e-12
	3.619817991457116e-05
	2.643688146452538e-05
	2.669627777266127e-05
	0.000000000000000e+00
 8	8.000000000000000e-12
	3.985435986788698e-05
	2.728165537132305e-05
	2.750596652586586e-05
	0.000000000000000e+00
 9	9.000000000000000e-12
	4.348659358078551e-05
	2.828613543047766e-05
	2.854195833272365e-05
	0.000000000000000e+00
 10	9.999999999999999e-12
	4.723326755321085e-05
	2.962330919700877e-05
	2.989989565824875e-05
	0.000000000000000e+00
 11	1.100000000000000e-11
	4.377724596568068e-05
	1.612730550350490e-05
	1.614937567874547e-05
	0.000000000000000e+00
 12	1.200000000000000e-11
	3.849390588980606e-05
	2.119933850172303e-06
	1.666393862650666e-06
	0.000000000000000e+00
 13	1.300000000000000e-11
	3.515169955453354e-05
	-2.367486659039798e-06
	-2.842601553126646e-06
	0.000000000000000e+00
 14	1.400000000000000e-11
	3.341132906960855e-05
	-1.604452031498163e-06
	-1.562761162425902e-06
	0.000000000000000e+00
 15	1.500000000000000e-11
	3.210135908984600e-05
	-2.645160497307025e-07
	-8.990934259353797e-08
	0.000000000000000e+00
 16	1.600000000000000e-11
	3.091848820249472e-05
	2.665257938501050e-07
	2.613914615989226e-07
	0.000000000000000e+00
 17	1.700000000000000e-11
	2.965642440309000e-05
	2.185418969993304e-07
	1.339264760040110e-07
	0.000000000000000e+00
 18	1.800000000000000e-11
	2.826924634283186e-05
	7.281941467774925e-08
	1.628219288583453e-08
	0.000000000000000e+00
 19	1.900000000000000e-11
	2.657193040423610e-05
	1.295187145999795e-08
	-1.766205366976912e-08
	0.000000000000000e+00
 20	2.000000000000000e-11
	2.404681891080715e-05
	1.753855118920014e-08
	-1.116514875922550e-08
	0.000000000000000e+00
 21	2.100000000000000e-11
	1.912909530186645e-05
	3.345514943199322e-08
	6.705036183309076e-07
	9.999999999999998e-04
 22	2.200000000000000e-11
	6.933511608706759e-06
	6.151610437410171e-08
	2.046779876981562e-06
	1.999999999999999e-03
 23	2.300000000000000e-11
	-2.469928301799088e-05
	1.263332241337343e-07
	2.724261681487738e-06
	2.999999999999999e-03
 24	2.400000000000000e-11
	-6.351486384536995e-05
	1.909511756188319e-07
	2.503261060955254e-06
	3.999999999999998e-03
 25	2.500000000000000e-11
	-5.404127181405060e-05
	1.759446769790820e-07
	2.352134300287850e-06
	4.999999999999999e-03
 26	2.600000000000000e-11
	-1.187469501136712e-05
	9.807988971457868e-08
	2.448455926399982e-06
	5.999999999999998e-03
 27	2.700000000000000e-11
	2.415041011006838e-05
	5.877935515392680e-08
	2.544408214053892e-06
	6.999999999999998e-03
 28	2.800000000000000e-11
	3.503127905950648e-05
	1.099549827883582e-07
	2.603837239010897e-06
	7.999999999999997e-03
 29	2.900000000000000e-11
	3.113111071084317e-05
	1.962527434944917e-07
	2.676319885965065e-06
	8.999999999999998e-03
 30	3.000000000000000e-11
	2.238533255056667e-05
	2.415011513575475e-07
	2.767211860788802e-06
	1.000000000000000e-02
 31	3.100000000000000e-11
	7.115852178093129e-06
	2.360844852842017e-07
	2.864848548829108e-06
	1.100000000000000e-02
 32	3.200000000000001e-11
	-2.664180557092047e-05
	2.191775707230535e-07
	2.966657324546867e-06
	1.200000000000001e-02
 33	3.300000000000001e-11
	-6.131728223938216e-05
	2.049644457473143e-07
	3.077891863161674e-06
	1.300000000000001e-02
 34	3.400000000000001e-11
	-4.499485225739643e-05
	1.802950810589187e-07
	3.203691620825623e-06
	1.400000000000001e-02
 35	3.500000000000001e-11
	-1.436511704856350e-06
	1.457403960493352e-07
	3.346971835683497e-06
	1.500000000000002e-02
 36	3.600000000000002e-11
	3.047339975018097e-05
	1.393514824284582e-07
	3.509397637697866e-06
	1.600000000000002e-02
 37	3.700000000000002e-11
	3.759211820513185e-05
	1.966920437687555e-07
	3.697822411880430e-06
	1.700000000000002e-02
 38	3.800000000000002e-11
	3.302454169046707e-05
	2.808562066601898e-07
	3.920469931310571e-06
	1.800000000000002e-02
 39	3.900000000000003e-11
	2.614084868185229e-05
	3.285913224830496e-07
	4.186114974444901e-06
	1.900000000000003e-02
 40	4.000000000000003e-11
	1.736181481721076e-05
	3.336481555897026e-07
	4.503648383501498e-06
	2.000000000000003e-02
 41	4.100000000000003e-11
	-4.633785342033804e-07
	3.338263014626650e-07
	4.882785295535220e-06
	2.100000000000004e-02
 42	4.200000000000004e-11
	-4.064979263415922e-05
	3.454978239231978e-07
	5.353582172255464e-06
	2.200000000000004e-02
 43	4.300000000000004e-11
	-6.312185209218305e-05
	3.582105418798133e-07
	5.946727326411818e-06
	2.300000000000004e-02
 44	4.400000000000004e-11
	-3.578336910972983e-05
	3.611919361344109e-07
	6.729544462207335e-06
	2.400000000000004e-02
 45	4.500000000000004e-11
	8.389288464630716e-06
	3.707623088871247e-07
	7.772734502080259e-06
	2.500000000000004e-02
 46	4.600000000000005e-11
	3.299990907791270e-05
	4.408677954515434e-07
	9.252268270946943e-06
	2.600000000000005e-02
 47	4.700000000000005e-11
	3.606979890405714e-05
	5.964160585072461e-07
	1.140519167063487e-05
	2.700000000000005e-02
 48	4.800000000000005e-11
	3.010498907278341e-05
	8.047395634091495e-07
	1.479801212882932e-05
	2.800000000000006e-02
 49	4.900000000000006e-11
	2.197446421915364e-05
	1.041778234254958e-06
	2.041478426100108e-05
	2.900000000000006e-02
 50	5.000000000000006e-11
	8.530396892582432e-06
	1.383639314405033e-06
	3.039225791192019e-05
	3.000000000000006e-02
 51	5.100000000000006e-11
	-2.331695075747720e-05
	2.005660527958549e-06
	4.914133590702103e-05
	3.100000000000006e-02
 52	5.200000000000007e-11
	-6.070437903663831e-05
	3.168849933390821e-06
	8.274242205529372e-05
	3.200000000000006e-02
 53	5.300000000000007e-11
	-4.904163945230345e-05
	5.406203120285584e-06
	1.408786522124431e-04
	3.300000000000006e-02
 54	5.400000000000007e-11
	-6.820129598812077e-06
	9.645895352315087e-06
	2.441187046935089e-04
	3.400000000000006e-02
 55	5.500000000000008e-11
	2.741162376729316e-05
	1.802548673472306e-05
	3.305577304484526e-04
	3.500000000000007e-02
 56	5.600000000000008e-11
	3.717772664722508e-05
	3.273854990537521e-05
	2.094710843334724e-04
	3.600000000000007e-02
 57	5.700000000000008e-11
	3.312166971395221e-05
	5.640704366050782e-05
	1.976361929703461e-04
	3.700000000000009e-02
 58	5.800000000000008e-11
	2.601945219667194e-05
	9.772686863204983e-05
	3.176112072237946e-04
	3.800000000000008e-02
 59	5.900000000000008e-11
	1.647264543087993e-05
	1.590635847553202e-04
	1.520394872465237e-04
	3.900000000000009e-02
 60	6.000000000000008e-11
	-3.264092327835669e-06
	2.486037493284396e-04
	-9.263553097443736e-06
	4.000000000000008e-02
 61	6.100000000000007e-11
	-4.480319293302147e-05
	3.541289631218286e-04
	3.564272975657540e-05
	4.100000000000008e-02
 62	6.200000000000007e-11
	-6.130714626684759e-05
	2.395492725997068e-04
	7.468293387937294e-05
	4.200000000000008e-02
 63	6.300000000000007e-11
	-3.012572192082483e-05
	1.930488736900054e-04
	2.852978376017466e-05
	4.300000000000007e-02
 64	6.400000000000006e-11
	1.371539430248821e-05
	3.183649528054358e-04
	-6.929980544071654e-06
	4.400000000000007e-02
 65	6.500000000000006e-11
	3.614490904660357e-05
	1.673459312430515e-04
	8.171096805601375e-06
	4.500000000000007e-02
 66	6.600000000000006e-11
	3.895450058083173e-05
	-5.083203326462423e-06
	1.942642045976539e-05
	4.600000000000006e-02
 67	6.700000000000005e-11
	3.530261250055175e-05
	3.122270992605371e-05
	7.153110608675669e-06
	4.700000000000006e-02
 68	6.800000000000005e-11
	3.171681151567219e-05
	7.017225949501545e-05
	-1.471100461962720e-06
	4.800000000000006e-02
 69	6.900000000000005e-11
	2.487125098042574e-05
	2.550380570808747e-05
	3.307036406318456e-06
	4.900000000000005e-02
 70	7.000000000000004e-11
	3.804499097991354e-06
	-1.155165529758660e-05
	6.615612921840793e-06
	5.000000000000004e-02
 71	7.100000000000004e-11
	-2.150891585781434e-05
	3.789024598153236e-06
	2.248766053694680e-06
	5.000000000000001e-02
 72	7.200000000000004e-11
	-6.907486918633902e-06
	1.837465144798423e-05
	-1.261462942329856e-06
	5.000000000000000e-02
 73	7.300000000000003e-11
	2.640017688882407e-05
	9.868983435410541e-06
	-1.549967390874364e-07
	5.000000000000000e-02
 74	7.400000000000003e-11
	6.124817010007277e-05
	-1.526589784945709e-06
	1.279826477366106e-06
	5.000000000000000e-02
 75	7.500000000000003e-11
	8.644629375952162e-05
	-1.629510599033275e-06
	5.587691584607683e-07
	5.000000000000000e-02
 76	7.600000000000002e-11
	1.203213123457737e-04
	3.408922732309639e-06
	-3.765154002040418e-07
	5.000000000000001e-02
 77	7.700000000000002e-11
	2.144324417469226e-04
	5.089606443411988e-06
	-1.561180448511084e-07
	5.000000000000000e-02
 78	7.800000000000001e-11
	3.868801663049923e-04
	3.247488250070690e-06
	3.674621535866460e-07
	5.000000000000000e-02
 79	7.900000000000001e-11
	5.097339876614437e-04
	1.041200952132125e-06
	3.895789926351957e-07
	5.000000000000000e-02
 80	8.000000000000001e-11
	2.346872503626861e-04
	4.322961187057061e-07
	1.265027044393402e-07
	5.000000000000000e-02
 81	8.100000000000000e-11
	6.454889048347863e-05
	7.572084028278230e-07
	-2.498565429032142e-08
	5.000000000000000e-02
 82	8.200000000000000e-11
	6.780915475137185e-05
	4.564628399905342e-07
	-1.587058889563974e-09
	5.000000000000000e-02
 83	8.300000000000000e-11
	7.711599393037349e-05
	-3.598193943181761e-07
	4.164329669108477e-08
	5.000000000000000e-02
 84	8.399999999999999e-11
	1.097579105809969e-04
	-6.844751200229122e-07
	1.082422484323363e-08
	5.000000000000000e-02
 85	8.499999999999999e-11
	1.584427060436690e-04
	-4.350820902909159e-07
	-4.496069443980297e-08
	5.000000000000000e-02
 86	8.599999999999999e-11
	1.832271550545289e-04
	-2.721736325170379e-07
	-5.235242124896586e-08
	5.000000000000000e-02
 87	8.699999999999998e-11
	1.796675131611785e-04
	-3.823367193019871e-07
	-2.391897025019904e-08
	5.000000000000000e-02
 88	8.799999999999998e-11
	2.342427596633057e-04
	-3.767537257814109e-07
	-1.327994280470698e-08
	5.000000000000000e-02
 89	8.899999999999998e-11
	3.771481740569849e-04
	-1.752240304850908e-08
	-2.168995534414456e-08
	5.000000000000000e-02
 90	8.999999999999997e-11
	3.639264861500994e-04
	4.458181185986005e-07
	-1.321457999662196e-08
	5.000000000000000e-02
 91	9.099999999999997e-11
	1.390274474042163e-04
	6.969701148543541e-07
	1.879782194816005e-08
	5.000000000000000e-02
 92	9.199999999999997e-11
	5.111033718768529e-05
	6.466096973357283e-07
	4.734971439458027e-08
	5.000000000000000e-02
 93	9.299999999999996e-11
	4.140436697264882e-05
	3.240998505136675e-07
	5.135782787184463e-08
	5.000000000000000e-02
 94	9.399999999999996e-11
	4.150959650956465e-05
	-1.254256906340938e-07
	3.071172232896607e-08
	5.000000000000000e-02
 95	9.499999999999996e-11
	5.217589764452231e-05
	-3.245973391350711e-07
	-8.306842914340828e-10
	5.000000000000000e-02
 96	9.599999999999995e-11
	6.490448182775307e-05
	-1.822844672659124e-07
	-2.419292841257733e-08
	5.000000000000000e-02
 97	9.699999999999995e-11
	8.522167950523630e-05
	-3.929234202238139e-08
	-2.316292275758493e-08
	5.000000000000000e-02
 98	9.799999999999995e-11
	1.228550505654011e-04
	-9.007432667226062e-08
	-6.729971100084218e-09
	5.000000000000001e-02
 99	9.899999999999994e-11
	1.730224900587717e-04
	-2.374676124054272e-07
	1.325562302019165e-10
	5.000000000000000e-02
 100	9.999999999999994e-11
	2.089411660239314e-04
	-3.795087308924056e-07
	-9.535986679672262e-09
	5.000000000000000e-02
 101	1.009999999999999e-10
	2.658217440192441e-04
	-4.475149592157924e-07
	-2.352449935527326e-08
	5.000000000000000e-02
 102	1.019999999999999e-10
	4.263746938168154e-04
	-2.828678475315591e-07
	-3.045025081271126e-08
	5.000000000000000e-02
 103	1.029999999999999e-10
	4.811310309670676e-04
	1.882156276791749e-07
	-2.419224333557772e-08
	5.000000000000000e-02
 104	1.039999999999999e-10
	1.798533598727296e-04
	7.171311942583181e-07
	9.732548222783388e-10
	5.000000000000000e-02
 105	1.049999999999999e-10
	6.209193188571837e-05
	8.953622629847353e-07
	3.843043257754826e-08
	5.000000000000000e-02
 106	1.059999999999999e-10
	7.027389428698161e-05
	5.100473341754670e-07
	6.309622477889226e-08
	5.000000000000000e-02
 107	1.069999999999999e-10
	8.358192996773701e-05
	-2.016553000867353e-07
	5.100929752514522e-08
	5.000000000000000e-02
 108	1.079999999999999e-10
	1.247861863142945e-04
	-6.028014071406287e-07
	4.097363179774885e-09
	5.000000000000000e-02
 109	1.089999999999999e-10
	1.793957967358030e-04
	-4.888418485209805e-07
	-4.130949394153403e-08
	5.000000000000000e-02
 110	1.099999999999999e-10
	2.160625750123500e-04
	-3.239756056273646e-07
	-4.867478564923739e-08
	5.000000000000000e-02
 111	1.109999999999999e-10
	2.750809049688419e-04
	-3.726223001514863e-07
	-2.855373596973887e-08
	5.000000000000000e-02
 112	1.119999999999999e-10
	4.329020829511932e-04
	-2.877145263015852e-07
	-1.627493001093276e-08
	5.000000000000000e-02
 113	1.129999999999999e-10
	4.320908477383214e-04
	1.823870059922459e-07
	-1.686621930531608e-08
	5.000000000000000e-02
 114	1.139999999999999e-10
	1.027775573440605e-04
	7.330893244041689e-07
	-1.389526013914660e-09
	5.000000000000000e-02
 115	1.149999999999999e-10
	-1.486189437071299e-05
	8.813842396996732e-07
	3.666730353834379e-08
	5.000000000000000e-02
 116	1.159999999999999e-10
	5.517100665054724e-06
	4.090422345956968e-07
	6.338862574022740e-08
	5.000000000000000e-02
 117	1.169999999999999e-10
	2.616006664858223e-05
	-2.904627667220747e-07
	4.720928235399462e-08
	5.000000000000000e-02
 118	1.179999999999999e-10
	4.345631498642447e-05
	-5.059817407497668e-07
	-2.888400265671899e-09
	5.000000000000000e-02
 119	1.189999999999999e-10
	5.028287995164152e-05
	-1.382403386930699e-07
	-4.119489892395208e-08
	5.000000000000000e-02
 120	1.199999999999999e-10
	5.468452947786453e-05
	1.862717923402189e-07
	-3.089081126007542e-08
	5.000000000000000e-02
 121	1.209999999999999e-10
	6.689122846023949e-05
	1.243624187100918e-07
	5.236223760287138e-09
	5.000000000000000e-02
 122	1.219999999999999e-10
	9.196775607914323e-05
	-8.646657409460005e-08
	2.025286358857617e-08
	5.000000000000000e-02
 123	1.229999999999999e-10
	1.345808676769294e-04
	-2.149157691780723e-07
	4.472541330438633e-09
	5.000000000000000e-02
 124	1.239999999999999e-10
	1.835273622165677e-04
	-2.988676647970169e-07
	-1.528025562415570e-08
	5.000000000000000e-02
 125	1.249999999999999e-10
	2.169813827793014e-04
	-4.010710200476908e-07
	-2.255135359238910e-08
	5.000000000000000e-02
 126	1.259999999999998e-10
	2.903333482232579e-04
	-4.332128311651283e-07
	-2.499186547772454e-08
	5.000000000000000e-02
 127	1.269999999999998e-10
	4.668791508946791e-04
	-1.884376337443082e-07
	-2.732303316397310e-08
	5.000000000000000e-02
 128	1.279999999999998e-10
	4.289736212688846e-04
	3.248674865398069e-07
	-1.951829803408029e-08
	5.000000000000000e-02
 129	1.289999999999998e-10
	1.302859785024943e-04
	7.978320872155030e-07
	9.259497796868342e-09
	5.000000000000000e-02
 130	1.299999999999998e-10
	6.164694358360720e-05
	8.625097207609853e-07
	4.663760930271451e-08
	5.000000000000001e-02
 131	1.309999999999998e-10
	7.245151432757486e-05
	3.524628008825731e-07
	6.376650028173910e-08
	5.000000000000000e-02
 132	1.319999999999998e-10
	9.065029838900457e-05
	-3.451755429799854e-07
	4.189367014006947e-08
	5.000000000000000e-02
 133	1.329999999999998e-10
	1.375546118635548e-04
	-6.162125037129894e-07
	-8.212616885666743e-09
	5.000000000000000e-02
 134	1.339999999999998e-10
	1.897094957691114e-04
	-4.337708773208449e-07
	-4.628892266109603e-08
	5.000000000000000e-02
 135	1.349999999999998e-10
	2.239730170214445e-04
	-3.184477344634734e-07
	-4.552527910666642e-08
	5.000000000000000e-02
 136	1.359999999999998e-10
	3.054500105992895e-04
	-3.796509087692699e-07
	-2.415160490279606e-08
	5.000000000000000e-02
 137	1.369999999999998e-10
	4.737733369424156e-04
	-2.120534571542103e-07
	-1.607986557056385e-08
	5.000000000000000e-02
 138	1.379999999999998e-10
	3.633892911767394e-04
	3.253092738601156e-07
	-1.552900410684835e-08
	5.000000000000000e-02
 139	1.389999999999998e-10
	4.562986872367184e-05
	8.276873473077608e-07
	6.059121874675027e-09
	5.000000000000000e-02
 140	1.399999999999998e-10
	-1.449060149663506e-05
	8.301456069426265e-07
	4.600240605962499e-08
	5.000000000000000e-02
 141	1.409999999999998e-10
	7.858705401321751e-06
	2.389134867635182e-07
	6.370892082446250e-08
	5.000000000000000e-02
 142	1.419999999999998e-10
	2.939416757531733e-05
	-4.178428634779251e-07
	3.728478526391077e-08
	5.000000000000000e-02
 143	1.429999999999998e-10
	4.548159574947846e-05
	-4.682165350566279e-07
	-1.491590807066534e-08
	5.000000000000000e-02
 144	1.439999999999998e-10
	5.077710396114483e-05
	-4.126123137728032e-08
	-4.343049977838057e-08
	5.000000000000000e-02
 145	1.449999999999998e-10
	5.653667692916985e-05
	2.098369762286579e-07
	-2.397894198896069e-08
	5.000000000000000e-02
 146	1.459999999999998e-10
	7.140392288411011e-05
	8.423696250428730e-08
	1.145410385663410e-08
	5.000000000000000e-02
 147	1.469999999999998e-10
	9.977318312557628e-05
	-1.200633690243271e-07
	1.965926117859875e-08
	5.000000000000001e-02
 148	1.479999999999998e-10
	1.462754021385187e-04
	-2.337021256173722e-07
	-1.357632635402635e-11
	5.000000000000000e-02
 149	1.489999999999998e-10
	1.921447933092940e-04
	-3.227109115494025e-07
	-1.779685052950201e-08
	5.000000000000000e-02
 150	1.499999999999998e-10
	2.265797871122544e-04
	-4.208855155421120e-07
	-2.332756005657112e-08
	5.000000000000001e-02
 151	1.509999999999998e-10
	3.259070894678138e-04
	-4.019194376209061e-07
	-2.593407825187814e-08
	5.000000000000000e-02
 152	1.519999999999998e-10
	4.991311062030539e-04
	-8.958962866350190e-08
	-2.699878536391671e-08
	5.000000000000000e-02
 153	1.529999999999998e-10
	3.519816236460759e-04
	4.533600393991439e-07
	-1.442486890223586e-08
	5.000000000000000e-02
 154	1.539999999999998e-10
	9.309421956588397e-05
	8.598189561700571e-07
	1.786957462653441e-08
	5.000000000000000e-02
 155	1.549999999999997e-10
	6.444484095039124e-05
	7.835765231687212e-07
	5.310169887131051e-08
	5.000000000000000e-02
 156	1.559999999999997e-10
	7.450077922974705e-05
	1.891979119648270e-07
	6.291431145475691e-08
	5.000000000000000e-02
 157	1.569999999999997e-10
	9.934735828840845e-05
	-4.543947187990964e-07
	3.160304336133448e-08
	5.000000000000000e-02
 158	1.579999999999997e-10
	1.506197467593151e-04
	-6.009153240213003e-07
	-1.980371218240599e-08
	5.000000000000000e-02
 159	1.589999999999997e-10
	1.988511375872265e-04
	-3.879469142597339e-07
	-4.952506243916454e-08
	5.000000000000000e-02
 160	1.599999999999997e-10
	2.348657301847779e-04
	-3.319286499716721e-07
	-4.073183647258342e-08
	5.000000000000000e-02
 161	1.609999999999997e-10
	3.401623456188672e-04
	-3.764663897623916e-07
	-2.051674256743892e-08
	5.000000000000000e-02
 162	1.619999999999997e-10
	4.898648599883358e-04
	-1.073258508544269e-07
	-1.650475284219968e-08
	5.000000000000000e-02
 163	1.629999999999997e-10
	2.868452499092862e-04
	4.629629085046892e-07
	-1.299973505190164e-08
	5.000000000000000e-02
 164	1.639999999999997e-10
	1.840157665523722e-05
	8.773200854768081e-07
	1.504390753569236e-08
	5.000000000000000e-02
 165	1.649999999999997e-10
	-1.262028417124665e-05
	7.348229932465980e-07
	5.344335569354329e-08
	5.000000000000000e-02
 166	1.659999999999997e-10
	8.467183414686829e-06
	6.875775576011670e-08
	6.222307484358866e-08
	5.000000000000000e-02
 167	1.669999999999997e-10
	3.173525066838832e-05
	-4.962357777554731e-07
	2.570013073691629e-08
	5.000000000000000e-02
 168	1.679999999999997e-10
	4.687403811760530e-05
	-4.177619506877248e-07
	-2.624461141858542e-08
	5.000000000000000e-02
 169	1.689999999999997e-10
	5.144289229302858e-05
	3.389412068232239e-08
	-4.370837895094592e-08
	5.000000000000000e-02
 170	1.699999999999997e-10
	5.880283171867939e-05
	2.170207953060967e-07
	-1.651618305068613e-08
	5.000000000000000e-02
 171	1.709999999999997e-10
	7.625338144261009e-05
	4.686202458651342e-08
	-6.525724431083451e-07
	4.900000000000032e-02
 172	1.719999999999997e-10
	1.092215718665410e-04
	-1.693293877278212e-07
	-1.998005206363020e-06
	4.800000000000032e-02
 173	1.729999999999997e-10
	1.580295932629642e-04
	-3.506400396380638e-07
	-2.591274052440293e-06
	4.700000000000032e-02
 174	1.739999999999997e-10
	1.992569696954408e-04
	-5.208690750501824e-07
	-2.239689377931928e-06
	4.600000000000033e-02
 175	1.749999999999997e-10
	2.392095072858902e-04
	-6.128502344718007e-07
	-1.994632406611289e-06
	4.500000000000033e-02
 176	1.759999999999997e-10
	3.635400712541295e-04
	-4.976136152783083e-07
	-2.030374278974728e-06
	4.400000000000034e-02
 177	1.769999999999997e-10
	5.058969272648427e-04
	-8.694435766705973e-08
	-2.039931900697446e-06
	4.300000000000034e-02
 178	1.779999999999997e-10
	2.768009804529568e-04
	4.486837137428412e-07
	-1.979351437406365e-06
	4.200000000000034e-02
 179	1.789999999999997e-10
	7.473366247016330e-05
	7.579871035604784e-07
	-1.909679331582706e-06
	4.100000000000034e-02
 180	1.799999999999997e-10
	6.740476356423734e-05
	5.664806113260183e-07
	-1.854331458035876e-06
	4.000000000000035e-02
 181	1.809999999999997e-10
	7.775177586110820e-05
	-1.013338191176680e-07
	-1.831758618330372e-06
	3.900000000000035e-02
 182	1.819999999999997e-10
	1.090768641496032e-04
	-6.658359684619055e-07
	-1.845669496415975e-06
	3.800000000000035e-02
 183	1.829999999999997e-10
	1.632445894185188e-04
	-6.804117680430106e-07
	-1.871367471284554e-06
	3.700000000000036e-02
 184	1.839999999999996e-10
	2.067690830254005e-04
	-4.694058549009237e-07
	-1.868746248753088e-06
	3.600000000000036e-02
 185	1.849999999999996e-10
	2.493024173057254e-04
	-4.634694348351067e-07
	-1.831468366504431e-06
	3.500000000000036e-02
 186	1.859999999999996e-10
	3.832245365249379e-04
	-4.638156821974261e-07
	-1.793285198941710e-06
	3.400000000000038e-02
 187	1.869999999999996e-10
	4.971315488792462e-04
	-1.069921791477199e-07
	-1.772698161194577e-06
	3.300000000000038e-02
 188	1.879999999999996e-10
	2.111499131211032e-04
	4.804419482165618e-07
	-1.745702772862512e-06
	3.200000000000038e-02
 189	1.889999999999996e-10
	-5.149732993290597e-07
	8.043189574916832e-07
	-1.694284254898919e-06
	3.100000000000038e-02
 190	1.899999999999996e-10
	-1.350556015331742e-05
	5.111903259282179e-07
	-1.641707723868880e-06
	3.000000000000038e-02
 191	1.909999999999996e-10
	6.223417455843418e-06
	-2.097200501262113e-07
	-1.627992920006559e-06
	2.900000000000039e-02
 192	1.919999999999996e-10
	3.299279484402027e-05
	-6.808107909250150e-07
	-1.654676875969456e-06
	2.800000000000039e-02
 193	1.929999999999996e-10
	4.709638004957284e-05
	-4.576903556033812e-07
	-1.684071123828407e-06
	2.700000000000040e-02
 194	1.939999999999996e-10
	5.238849045896068e-05
	-1.597721245997869e-08
	-1.672466243014001e-06
	2.600000000000040e-02
 195	1.949999999999996e-10
	6.238081400523004e-05
	9.984009397964540e-08
	-1.620964124924474e-06
	2.500000000000040e-02
 196	1.959999999999996e-10
	8.322342722900627e-05
	-7.095570172461839e-08
	-1.575999614150193e-06
	2.400000000000040e-02
 197	1.969999999999996e-10
	1.206898654477778e-04
	-2.565662281458385e-07
	-1.564525656142467e-06
	2.300000000000041e-02
 198	1.979999999999996e-10
	1.702923693000937e-04
	-3.754884106764100e-07
	-1.568944051647385e-06
	2.200000000000041e-02
 199	1.989999999999996e-10
	2.057483421288828e-04
	-4.788872070332535e-07
	-1.564348907555594e-06
	2.100000000000041e-02
 200	1.999999999999996e-10
	2.588308684602816e-04
	-5.320228077493616e-07
	-1.549295605633595e-06
	2.000000000000042e-02
 201	2.009999999999996e-10
	4.136241447261444e-04
	-3.748257823702232e-07
	-1.531637205163561e-06
	1.900000000000042e-02
 202	2.019999999999996e-10
	4.901206745055239e-04
	7.927758112236452e-08
	-1.506179092813948e-06
	1.800000000000042e-02
 203	2.029999999999996e-10
	1.965551576503826e-04
	5.997927482183665e-07
	-1.462254103528275e-06
	1.700000000000043e-02
 204	2.039999999999996e-10
	6.384883985867997e-05
	7.944000239292889e-07
	-1.404387285444778e-06
	1.600000000000043e-02
 205	2.049999999999996e-10
	6.984280711493513e-05
	4.485045615354290e-07
	-1.356739034656911e-06
	1.500000000000044e-02
 206	2.059999999999996e-10
	8.214009888926781e-05
	-2.495007192816082e-07
	-1.341554262869706e-06
	1.400000000000044e-02
 207	2.069999999999996e-10
	1.216237979853296e-04
	-6.809475690398798e-07
	-1.355520091917343e-06
	1.300000000000044e-02
 208	2.079999999999996e-10
	1.767582050337755e-04
	-5.890925847017176e-07
	-1.364122779452223e-06
	1.200000000000045e-02
 209	2.089999999999996e-10
	2.150668204961581e-04
	-4.102391796102957e-07
	-1.330295987755614e-06
	1.100000000000045e-02
 210	2.099999999999996e-10
	2.718928943435133e-04
	-4.471503473524762e-07
	-1.263150320337820e-06
	1.000000000000045e-02
 211	2.109999999999996e-10
	4.316366394814891e-04
	-3.744115649672182e-07
	-1.195315410456370e-06
	9.000000000000456e-03
 212	2.119999999999996e-10
	4.603652797423637e-04
	8.147402039726672e-08
	-1.129135409903536e-06
	8.000000000000455e-03
 213	2.129999999999995e-10
	1.466381934024549e-04
	6.471622732392813e-07
	-1.029545694525662e-06
	7.000000000000463e-03
 214	2.139999999999995e-10
	7.590991380478638e-06
	8.336832504835651e-07
	-8.824933461629844e-07
	6.000000000000463e-03
 215	2.149999999999995e-10
	-1.485746253996135e-05
	4.058447728215969e-07
	-7.078967500981270e-07
	5.000000000000469e-03
 216	2.159999999999995e-10
	-1.385719135202543e-06
	-3.171449991214477e-07
	-5.161325687583341e-07
	4.000000000000472e-03
 217	2.169999999999995e-10
	3.092807921423446e-05
	-6.390383421809112e-07
	-2.612481857619916e-07
	3.000000000000477e-03
 218	2.179999999999995e-10
	4.848774768797514e-05
	-3.400060185773297e-07
	1.744765033154388e-07
	2.000000000000481e-03
 219	2.189999999999995e-10
	5.697039290566396e-05
	7.774110872486314e-08
	9.773048882305724e-07
	1.000000000000481e-03
 220	2.199999999999995e-10
	7.234310189094887e-05
	2.186452768689753e-07
	2.421850871719752e-06
	4.911384887032077e-16
 221	2.209999999999995e-10
	1.019064107543451e-04
	1.593040459671279e-07
	5.823148463956625e-06
	0.000000000000000e+00
 222	2.219999999999995e-10
	1.474895182732151e-04
	1.497201660588661e-07
	1.190342603471087e-05
	0.000000000000000e+00
 223	2.229999999999995e-10
	1.889953557336402e-04
	3.175816177630953e-07
	1.907863485763541e-05
	0.000000000000000e+00
 224	2.239999999999995e-10
	2.197813290816107e-04
	6.750335591484819e-07
	2.185013860912337e-05
	0.000000000000000e+00
 225	2.249999999999995e-10
	3.185564332701393e-04
	1.056057226037431e-06
	1.440883868316338e-05
	0.000000000000000e+00
 226	2.259999999999995e-10
	4.923843381038533e-04
	1.184352000890899e-06
	2.765872936615826e-06
	0.000000000000000e+00
 227	2.269999999999995e-10
	3.603492613965313e-04
	9.294192509214860e-07
	-5.021250846246559e-06
	0.000000000000000e+00
 228	2.279999999999995e-10
	9.767292165223992e-05
	5.176411375211854e-07
	-4.727371471396701e-06
	0.000000000000000e+00
 229	2.289999999999995e-10
	6.346224896179109e-05
	2.239923077506538e-07
	9.455614640029879e-08
	0.000000000000000e+00
 230	2.299999999999995e-10
	7.226958112458858e-05
	-1.170372554410621e-08
	1.937752085377727e-06
	0.000000000000000e+00
 231	2.309999999999995e-10
	9.519263234978765e-05
	-2.787453433428754e-07
	3.969964477525693e-07
	0.000000000000000e+00
 232	2.319999999999995e-10
	1.451857659626553e-04
	-4.172042251237623e-07
	-4.914621732945175e-07
	0.000000000000000e+00
 233	2.329999999999995e-10
	1.948147582828784e-04
	-3.888020679275273e-07
	-1.803651306099260e-07
	0.000000000000000e+00
 234	2.339999999999995e-10
	2.301879735425096e-04
	-3.961794827025773e-07
	3.271713630632320e-08
	0.000000000000000e+00
 235	2.349999999999995e-10
	3.290992906071088e-04
	-3.969822284140924e-07
	5.772856688565475e-09
	0.000000000000000e+00
 236	2.359999999999995e-10
	4.978465389015182e-04
	-1.236268372678203e-07
	-2.176194760168685e-08
	0.000000000000000e+00
 237	2.369999999999995e-10
	3.431950238320644e-04
	4.256042949464506e-07
	-1.813992228146943e-08
	0.000000000000000e+00
 238	2.379999999999995e-10
	8.028853744460072e-05
	8.678961262057052e-07
	1.151429030594761e-08
	0.000000000000000e+00
 239	2.389999999999995e-10
	4.239663791036871e-05
	7.952468967989613e-07
	5.183976618107953e-08
	0.000000000000000e+00
 240	2.399999999999995e-10
	2.673541708182615e-05
	1.741447860691502e-07
	6.423240117075606e-08
	0.000000000000000e+00
 241	2.409999999999995e-10
	6.383066993589105e-06
	-4.794218874656464e-07
	3.237145308626635e-08
	0.000000000000000e+00
 242	2.419999999999995e-10
	3.459534678039640e-05
	-5.820609024344011e-07
	-2.101804584068805e-08
	0.000000000000000e+00
 243	2.429999999999995e-10
	8.250316056775841e-05
	-3.279600686774598e-07
	-5.026844069219425e-08
	0.000000000000000e+00
 244	2.439999999999995e-10
	1.252175077767964e-04
	-2.077738987206260e-07
	-3.776405928881648e-08
	0.000000000000000e+00
 245	2.449999999999995e-10
	1.534784363617782e-04
	-2.470854414135635e-07
	-1.351243825165347e-08
	0.000000000000000e+00
 246	2.459999999999995e-10
	1.658769786326781e-04
	-2.485026511764060e-07
	-7.739537107453013e-09
	0.000000000000000e+00
 247	2.469999999999995e-10
	1.984674225718682e-04
	-1.858968712044878e-07
	-1.467091259353900e-08
	0.000000000000000e+00
 248	2.479999999999995e-10
	3.083016606344173e-04
	-4.926374731314085e-08
	-1.543886417153581e-08