Title: CKT2
Date: Wed Oct 18 17:14:14 2017
Plotname: Transient analysis
Flags: real
No. Variables: 3
No. Points: 4501    
Command: version 4.3.1
Variables:
 0 time S
 1 v(1) V
 2 v(12) V
Values:
 0	0.000000000000000e+00
	0.000000000000000e+00
	-4.966081423529378e-07
 1	1.000000000000000e-13
	-1.188623428726008e-04
	-1.943775242040045e-05
 2	2.000000000000000e-13
	-9.591355480295565e-05
	-3.094009287840607e-05
 3	3.000000000000000e-13
	-8.087125121084089e-05
	-4.055095087638220e-05
 4	4.000000000000000e-13
	-7.187599802354164e-05
	-4.835826574205820e-05
 5	5.000000000000000e-13
	-6.695311395686231e-05
	-5.458024483300284e-05
 6	6.000000000000000e-13
	-6.467450919055682e-05
	-5.942140805223110e-05
 7	6.999999999999999e-13
	-6.402127192384498e-05
	-6.307003582697155e-05
 8	7.999999999999999e-13
	-6.427882735822433e-05
	-6.569703482550444e-05
 9	8.999999999999999e-13
	-6.495724045316241e-05
	-6.745577650459599e-05
 10	1.000000000000000e-12
	-6.573088117298587e-05
	-6.848258281190854e-05
 11	1.100000000000000e-12
	-6.639296139964227e-05
	-6.889762324620967e-05
 12	1.200000000000000e-12
	-6.682146196730897e-05
	-6.880605455252456e-05
 13	1.300000000000000e-12
	-6.695375628423139e-05
	-6.829928398539732e-05
 14	1.400000000000000e-12
	-6.676785113929754e-05
	-6.745627354489557e-05
 15	1.500000000000000e-12
	-6.626864302298697e-05
	-6.634482921264043e-05
 16	1.600000000000000e-12
	-6.547795922265021e-05
	-6.502283849942007e-05
 17	1.700000000000000e-12
	-6.442744041599081e-05
	-6.353943349827059e-05
 18	1.800000000000000e-12
	-6.315354384487237e-05
	-6.193606652534617e-05
 19	1.900000000000000e-12
	-6.169411781984060e-05
	-6.024749240972682e-05
 20	2.000000000000000e-12
	-6.008613057756066e-05
	-5.850265632418410e-05
 21	2.100000000000000e-12
	-5.836423821808599e-05
	-5.672548933195542e-05
 22	2.200000000000000e-12
	-5.655995447525752e-05
	-5.493561596208378e-05
 23	2.300000000000000e-12
	-5.470124478678618e-05
	-5.314897945246423e-05
 24	2.400000000000000e-12
	-5.281241270239228e-05
	-5.137839102436298e-05
 25	2.500000000000000e-12
	-5.091418133753972e-05
	-4.963400986626271e-05
 26	2.600000000000000e-12
	-4.902389885804306e-05
	-4.792376051302226e-05
 27	2.700000000000000e-12
	-4.715581681184105e-05
	-4.625369412276340e-05
 28	2.800000000000000e-12
	-4.532140501281022e-05
	-4.462829982655501e-05
 29	2.900000000000000e-12
	-4.352967778990578e-05
	-4.305077192635438e-05
 30	3.000000000000000e-12
	-4.178751464017154e-05
	-4.152323826134119e-05
 31	3.100000000000000e-12
	-4.009996435764620e-05
	-4.004695459908822e-05
 32	3.200000000000000e-12
	-3.847052608405407e-05
	-3.862246943491455e-05
 33	3.300000000000000e-12
	-3.690140385030656e-05
	-3.724976313354394e-05
 34	3.400000000000000e-12
	-3.539373336382428e-05
	-3.592836491091752e-05
 35	3.500000000000000e-12
	-3.394778128539534e-05
	-3.465745075593418e-05
 36	3.600000000000000e-12
	-3.256311821368664e-05
	-3.343592501538739e-05
 37	3.700000000000000e-12
	-3.123876719469397e-05
	-3.226248803150982e-05
 38	3.800000000000000e-12
	-2.997332990259389e-05
	-3.113569191032829e-05
 39	3.900000000000000e-12
	-2.876509277686916e-05
	-3.005398622946609e-05
 40	4.000000000000000e-12
	-2.761211540747390e-05
	-2.901575524461897e-05
 41	4.100000000000000e-12
	-2.651230337914139e-05
	-2.801934794249484e-05
 42	4.200000000000000e-12
	-2.546346765001200e-05
	-2.706310209267714e-05
 43	4.300000000000000e-12
	-2.446337237198255e-05
	-2.614536328882470e-05
 44	4.400000000000000e-12
	-2.350977287727877e-05
	-2.526449981947130e-05
 45	4.500000000000000e-12
	-2.260044536938045e-05
	-2.441891408684994e-05
 46	4.600000000000000e-12
	-2.173320967449188e-05
	-2.360705117841792e-05
 47	4.700000000000000e-12
	-2.090594623737065e-05
	-2.282740510589131e-05
 48	4.800000000000000e-12
	-2.011660838557038e-05
	-2.207852314117497e-05
 49	4.900000000000000e-12
	-1.936323074064593e-05
	-2.135900861364298e-05
 50	5.000000000000000e-12
	-1.864393452417702e-05
	-2.066752246956732e-05
 51	5.100000000000000e-12
	-1.795693039045178e-05
	-2.000278384837638e-05
 52	5.200000000000000e-12
	-1.730051931570702e-05
	-1.936356988332047e-05
 53	5.300000000000000e-12
	-1.667309198503408e-05
	-1.874871490208601e-05
 54	5.400000000000000e-12
	-1.607312704134905e-05
	-1.815710916812180e-05
 55	5.500000000000000e-12
	-1.549918849505371e-05
	-1.758769728171478e-05
 56	5.600000000000000e-12
	-1.494992253700418e-05
	-1.703947633427222e-05
 57	5.700000000000000e-12
	-1.442405395003930e-05
	-1.651149389502882e-05
 58	5.800000000000000e-12
	-1.392038227452877e-05
	-1.600284589042871e-05
 59	5.899999999999999e-12
	-1.343777785019195e-05
	-1.551267442771820e-05
 60	5.999999999999999e-12
	-1.297517782891679e-05
	-1.504016559999934e-05
 61	6.099999999999999e-12
	-1.253158223065916e-05
	-1.458454730524847e-05
 62	6.199999999999999e-12
	-1.210605009599773e-05
	-1.414508710089114e-05
 63	6.299999999999999e-12
	-1.169769577393413e-05
	-1.372109011351160e-05
 64	6.399999999999999e-12
	-1.130568537149735e-05
	-1.331189701483328e-05
 65	6.499999999999999e-12
	-1.092923338214578e-05
	-1.291688207494318e-05
 66	6.599999999999999e-12
	-1.056759950245237e-05
	-1.253545129703726e-05
 67	6.699999999999999e-12
	-1.022008564074862e-05
	-1.216704063907426e-05
 68	6.799999999999999e-12
	-9.886033116975769e-06
	-1.181111432226448e-05
 69	6.899999999999999e-12
	-9.564820049704142e-06
	-1.146716322823954e-05
 70	6.999999999999999e-12
	-9.255858923902894e-06
	-1.113470338221235e-05
 71	7.099999999999999e-12
	-8.958594331398406e-06
	-1.081327452186678e-05
 72	7.199999999999999e-12
	-8.672500874894760e-06
	-1.050243874771327e-05
 73	7.300000000000000e-12
	-8.397081225817245e-06
	-1.020177925352662e-05
 74	7.400000000000000e-12
	-8.131864325983002e-06
	-9.910899131897154e-06
 75	7.500000000000000e-12
	-7.876403723105635e-06
	-9.629420252847594e-06
 76	7.600000000000000e-12
	-7.630276030346139e-06
	-9.356982210330025e-06
 77	7.700000000000000e-12
	-7.393079500468571e-06
	-9.093241334418692e-06
 78	7.800000000000000e-12
	-7.164432705600979e-06
	-8.837869763991617e-06
 79	7.900000000000000e-12
	-6.943973314110904e-06
	-8.590554577796470e-06
 80	8.000000000000000e-12
	-6.731356956647249e-06
	-8.350996978930232e-06
 81	8.100000000000000e-12
	-6.526256173957677e-06
	-8.118911530788034e-06
 82	8.200000000000000e-12
	-6.328359439650366e-06
	-7.894025439855208e-06
 83	8.300000000000000e-12
	-6.137370251611613e-06
	-7.676077883638723e-06
 84	8.400000000000000e-12
	-5.953006286316108e-06
	-7.464819379482083e-06
 85	8.500000000000000e-12
	-5.774998610765207e-06
	-7.260011192805521e-06
 86	8.600000000000000e-12
	-5.603090947253853e-06
	-7.061424780938560e-06
 87	8.700000000000000e-12
	-5.437038986605759e-06
	-6.868841271344147e-06
 88	8.800000000000000e-12
	-5.276609745916394e-06
	-6.682050970723390e-06
 89	8.900000000000000e-12
	-5.121580967213597e-06
	-6.500852904111905e-06
 90	9.000000000000000e-12
	-4.971740553785029e-06
	-6.325054380761739e-06
 91	9.100000000000000e-12
	-4.826886041227875e-06
	-6.154470586176708e-06
 92	9.200000000000000e-12
	-4.686824100555629e-06
	-5.988924197371785e-06
 93	9.300000000000000e-12
	-4.551370070947827e-06
	-5.828245020961795e-06
 94	9.400000000000000e-12
	-4.420347519955291e-06
	-5.672269651408093e-06
 95	9.500000000000000e-12
	-4.293587829177657e-06
	-5.520841149217444e-06
 96	9.599999999999999e-12
	-4.170929803611725e-06
	-5.373808736670129e-06
 97	9.699999999999999e-12
	-4.052219303032321e-06
	-5.231027510985011e-06
 98	9.799999999999999e-12
	-3.937308893915344e-06
	-5.092358172809775e-06
 99	9.899999999999999e-12
	-3.826057520540906e-06
	-4.957666769954346e-06
 100	9.999999999999999e-12
	-3.718330194032873e-06
	-4.826824454518981e-06
 101	1.010000000000000e-11
	-3.613997698195158e-06
	-4.699707253444450e-06
 102	1.020000000000000e-11
	-3.512936311097820e-06
	-4.576195850761721e-06
 103	1.030000000000000e-11
	-3.415027541449783e-06
	-4.456175381689916e-06
 104	1.040000000000000e-11
	-3.320157878870246e-06
	-4.339535236993728e-06
 105	1.050000000000000e-11
	-3.228218557237238e-06
	-4.226168877818097e-06
 106	1.060000000000000e-11
	-3.139105330352155e-06
	-4.115973659533047e-06
 107	1.070000000000000e-11
	-3.052718259213698e-06
	-4.008850664899252e-06
 108	1.080000000000000e-11
	-2.968961510244027e-06
	-3.904704545154328e-06
 109	1.090000000000000e-11
	-2.887743163853649e-06
	-3.803443369383244e-06
 110	1.100000000000000e-11
	-2.808975032771513e-06
	-3.704978480901815e-06
 111	1.110000000000000e-11
	-2.732572489605337e-06
	-3.609224361034774e-06
 112	1.120000000000000e-11
	-2.658454303129271e-06
	-3.516098499090042e-06
 113	1.130000000000000e-11
	-2.586542482826830e-06
	-3.425521268949612e-06
 114	1.140000000000000e-11
	-2.516762131245630e-06
	-3.337415811169807e-06
 115	1.150000000000000e-11
	-2.449041303746564e-06
	-3.251707920997049e-06
 116	1.160000000000000e-11
	-2.383310875254992e-06
	-3.168325941304549e-06
 117	1.170000000000000e-11
	-2.319504413642233e-06
	-3.087200660837891e-06
 118	1.180000000000000e-11
	-2.257558059387367e-06
	-3.008265216836650e-06
 119	1.190000000000000e-11
	-2.197410411189476e-06
	-2.931455002446035e-06
 120	1.200000000000000e-11
	-2.139002417217819e-06
	-2.856707578045027e-06
 121	1.210000000000000e-11
	-2.082277271704125e-06
	-2.783962586882432e-06
 122	1.220000000000000e-11
	-2.027180316598363e-06
	-2.713161674235978e-06
 123	1.230000000000000e-11
	-1.973658948024229e-06
	-2.644248410425065e-06
 124	1.240000000000000e-11
	-1.921662527283144e-06
	-2.577168217042955e-06
 125	1.250000000000000e-11
	-1.871142296170807e-06
	-2.511868296630337e-06
 126	1.260000000000000e-11
	-1.822051296382462e-06
	-2.448297565245478e-06
 127	1.270000000000000e-11
	-1.774344292794694e-06
	-2.386406588171592e-06
 128	1.280000000000000e-11
	-1.727977700422979e-06
	-2.326147518237531e-06
 129	1.290000000000000e-11
	-1.682909514864728e-06
	-2.267474036938640e-06
 130	1.300000000000000e-11
	-1.639099246048501e-06
	-2.210341297964763e-06
 131	1.310000000000000e-11
	-1.596507855118234e-06
	-2.154705873251703e-06
 132	1.320000000000000e-11
	-1.555097694291944e-06
	-2.100525701195628e-06
 133	1.330000000000000e-11
	-1.514832449541619e-06
	-2.047760037164650e-06
 134	1.340000000000000e-11
	-1.475677085949962e-06
	-1.996369405988580e-06
 135	1.350000000000000e-11
	-1.437597795607966e-06
	-1.946315556511167e-06
 136	1.360000000000000e-11
	-1.400561947922575e-06
	-1.897561417952461e-06
 137	1.370000000000000e-11
	-1.364538042212230e-06
	-1.850071058127828e-06
 138	1.380000000000000e-11
	-1.329495662475243e-06
	-1.803809643329534e-06
 139	1.390000000000000e-11
	-1.295405434219923e-06
	-1.758743399886534e-06
 140	1.400000000000000e-11
	-1.262238983253135e-06
	-1.714839577250535e-06
 141	1.410000000000000e-11
	-1.229968896328888e-06
	-1.672066412582066e-06
 142	1.420000000000000e-11
	-1.198568683564216e-06
	-1.630393096748937e-06
 143	1.430000000000000e-11
	-1.168012742533827e-06
	-1.589789741692272e-06
 144	1.440000000000000e-11
	-1.138276323959704e-06
	-1.550227349072783e-06
 145	1.450000000000000e-11
	-1.109335498917460e-06
	-1.511677780142965e-06
 146	1.460000000000000e-11
	-1.081167127484707e-06
	-1.474113726833456e-06
 147	1.470000000000000e-11
	-1.053748828760633e-06
	-1.437508683915118e-06
 148	1.480000000000000e-11
	-1.027058952188892e-06
	-1.401836922306922e-06
 149	1.490000000000000e-11
	-1.001076550121628e-06
	-1.367073463314745e-06
 150	1.500000000000001e-11
	-9.757813515640221e-07
	-1.333194053978940e-06
 151	1.510000000000001e-11
	-9.511537370422687e-07
	-1.300175143226831e-06
 152	1.520000000000001e-11
	-9.271747145413292e-07
	-1.267993859064206e-06
 153	1.530000000000001e-11
	-9.038258964612466e-07
	-1.236627986483659e-06
 154	1.540000000000001e-11
	-8.810894775437477e-07
	-1.206055946347656e-06
 155	1.550000000000001e-11
	-8.589482137233636e-07
	-1.176256774895954e-06
 156	1.560000000000002e-11
	-8.373854018589976e-07
	-1.147210104196112e-06
 157	1.570000000000002e-11
	-8.163848603051970e-07
	-1.118896143098930e-06
 158	1.580000000000002e-11
	-7.959309102840460e-07
	-1.091295659123285e-06
 159	1.590000000000002e-11
	-7.760083580201089e-07
	-1.064389960764066e-06
 160	1.600000000000002e-11
	-7.566024776035823e-07
	-1.038160880666374e-06
 161	1.610000000000002e-11
	-7.376989945480358e-07
	-1.012590759181020e-06
 162	1.620000000000003e-11
	-7.192840700113911e-07
	-9.876624287464748e-07
 163	1.630000000000003e-11
	-7.013442856495320e-07
	-9.633591985612756e-07
 164	1.640000000000003e-11
	-6.838666290736977e-07
	-9.396648400806776e-07
 165	1.650000000000003e-11
	-6.668384798852936e-07
	-9.165635727294218e-07
 166	1.660000000000003e-11
	-6.502475962619197e-07
	-8.940400504180994e-07
 167	1.670000000000003e-11
	-6.340821020697057e-07
	-8.720793482120453e-07
 168	1.680000000000004e-11
	-6.183304744789572e-07
	-8.506669497887570e-07
 169	1.690000000000004e-11
	-6.029815320609204e-07
	-8.297887349834725e-07
 170	1.700000000000004e-11
	-5.880244233442620e-07
	-8.094309681187618e-07
 171	1.710000000000004e-11
	-5.734486158114617e-07
	-7.895802863567316e-07
 172	1.720000000000004e-11
	-5.592438853160224e-07
	-7.702236888339279e-07
 173	1.730000000000004e-11
	-5.454003059019773e-07
	-7.513485257638703e-07
 174	1.740000000000004e-11
	-5.319082400085209e-07
	-7.329424883038469e-07
 175	1.750000000000005e-11
	-5.187583290433877e-07
	-7.149935983468958e-07
 176	1.760000000000005e-11
	-5.059414843092964e-07
	-6.974901990925356e-07
 177	1.770000000000005e-11
	-4.934488782678846e-07
	-6.804209454538781e-07
 178	1.780000000000005e-11
	-4.812719361276841e-07
	-6.637747952801642e-07
 179	1.790000000000005e-11
	-4.694023277419112e-07
	-6.475410003349130e-07
 180	1.800000000000005e-11
	-4.578319598033565e-07
	-6.317090981273629e-07
 181	1.810000000000006e-11
	-4.465529683244130e-07
	-6.162689034304825e-07
 182	1.820000000000006e-11
	-4.355577113892779e-07
	-6.012105006433474e-07
 183	1.830000000000006e-11
	-4.248387621681314e-07
	-5.865242358307401e-07
 184	1.840000000000006e-11
	-4.143889021823657e-07
	-5.722007095908679e-07
 185	1.850000000000006e-11
	-4.042011148102997e-07
	-5.582307695562757e-07
 186	1.860000000000006e-11
	-3.942685790235747e-07
	-5.446055037422624e-07
 187	1.870000000000007e-11
	-3.845846633452907e-07
	-5.313162334713364e-07
 188	1.880000000000007e-11
	-3.751429200206614e-07
	-5.183545071702329e-07
 189	1.890000000000007e-11
	-3.659370793918083e-07
	-5.057120936908776e-07
 190	1.900000000000007e-11
	-3.569610444681931e-07
	-4.933809765154744e-07
 191	1.910000000000007e-11
	-3.482088856852402e-07
	-4.813533474650381e-07
 192	1.920000000000007e-11
	-3.396748358439271e-07
	-4.696216012724913e-07
 193	1.930000000000007e-11
	-3.313532852237549e-07
	-4.581783296291393e-07
 194	1.940000000000008e-11
	-3.232387768624292e-07
	-4.470163161373223e-07
 195	1.950000000000008e-11
	-3.153260019958801e-07
	-4.361285306741277e-07
 196	1.960000000000008e-11
	-3.076097956524724e-07
	-4.255081246653519e-07
 197	1.970000000000008e-11
	-3.000851323950821e-07
	-4.151484257577639e-07
 198	1.980000000000008e-11
	-2.927471222058015e-07
	-4.050429334019525e-07
 199	1.990000000000008e-11
	-2.855910065074748e-07
	-3.951853138021302e-07
 200	2.000000000000009e-11
	-2.786121543172939e-07
	-3.855693958048875e-07
 201	2.010000000000009e-11
	-2.718060585268386e-07
	-3.761891660857609e-07
 202	2.020000000000009e-11
	-2.651683323042365e-07
	-3.670387653273745e-07
 203	2.030000000000009e-11
	-2.586947056137234e-07
	-3.581124836483209e-07
 204	2.040000000000009e-11
	-2.523810218487431e-07
	-3.494047570265046e-07
 205	2.050000000000009e-11
	-2.462232345729955e-07
	-3.409101629713514e-07
 206	2.060000000000010e-11
	-2.402174043669544e-07
	-3.326234171683798e-07
 207	2.070000000000010e-11
	-2.343596957754718e-07
	-3.245393693700942e-07
 208	2.080000000000010e-11
	-2.286463743520858e-07
	-3.166530002739913e-07
 209	2.090000000000010e-11
	-2.230738037975463e-07
	-3.089594176048396e-07
 210	2.100000000000010e-11
	-2.176384431887718e-07
	-3.014538531986214e-07
 211	2.110000000000010e-11
	-2.123368442947073e-07
	-2.941316592724380e-07
 212	2.120000000000011e-11
	-2.071656489760783e-07
	-2.869883057111200e-07
 213	2.130000000000011e-11
	-2.021215866663793e-07
	-2.800193765109178e-07
 214	2.140000000000011e-11
	-1.972014719305359e-07
	-2.732205672481817e-07
 215	2.150000000000011e-11
	-1.924022020994503e-07
	-2.665876816791162e-07
 216	2.160000000000011e-11
	-1.877207549772427e-07
	-2.601166293944434e-07
 217	2.170000000000011e-11
	-1.831541866183370e-07
	-2.538034225736859e-07
 218	2.180000000000011e-11
	-1.786996291723533e-07
	-2.476441737915574e-07
 219	2.190000000000012e-11
	-1.743542887942324e-07
	-2.416350929185579e-07
 220	2.200000000000012e-11
	-1.701154436182855e-07
	-2.357724850899294e-07
 221	2.210000000000012e-11
	-1.659804417921338e-07
	-2.300527477314859e-07
 222	2.220000000000012e-11
	-1.619466995701424e-07
	-2.244723686837549e-07
 223	2.230000000000012e-11
	-1.580116994638369e-07
	-2.190279233344019e-07
 224	2.240000000000012e-11
	-1.541729884471174e-07
	-2.137160729078223e-07
 225	2.250000000000013e-11
	-1.504281762144062e-07
	-2.085335616922643e-07
 226	2.260000000000013e-11
	-1.467749334904095e-07
	-2.034772154702673e-07
 227	2.270000000000013e-11
	-1.432109903895660e-07
	-1.985439388420460e-07
 228	2.280000000000013e-11
	-1.397341348234441e-07
	-1.937307138065145e-07
 229	2.290000000000013e-11
	-1.363422109544199e-07
	-1.890345971652911e-07
 230	2.300000000000013e-11
	-1.330331176942558e-07
	-1.844527192174779e-07
 231	2.310000000000014e-11
	-1.298048072464172e-07
	-1.799822812722924e-07
 232	2.320000000000014e-11
	-1.266552836901827e-07
	-1.756205544604106e-07
 233	2.330000000000014e-11
	-1.235826016054712e-07
	-1.713648773132369e-07
 234	2.340000000000014e-11
	-1.205848647367675e-07
	-1.672126546997169e-07
 235	2.350000000000014e-11
	-1.176602246958767e-07
	-1.631613554787960e-07
 236	2.360000000000014e-11
	-1.148068797008021e-07
	-1.592085115459217e-07
 237	2.370000000000014e-11
	-1.120230733504859e-07
	-1.553517155514850e-07
 238	2.380000000000015e-11
	-1.093070934347848e-07
	-1.515886200577096e-07
 239	2.390000000000015e-11
	-1.066572707770510e-07
	-1.479169353080431e-07
 240	2.400000000000015e-11
	-1.040719781095861e-07
	-1.443344284992252e-07
 241	2.410000000000015e-11
	-1.015496289808764e-07
	-1.408389216047858e-07
 242	2.420000000000015e-11
	-9.908867669268717e-08
	-1.374282907384591e-07
 243	2.430000000000015e-11
	-9.668761326711542e-08
	-1.341004640386941e-07
 244	2.440000000000016e-11
	-9.434496844202296e-08
	-1.308534211077126e-07
 245	2.450000000000016e-11
	-9.205930869423427e-08
	-1.276851909773429e-07
 246	2.460000000000016e-11
	-8.982923629006204e-08
	-1.245938515973723e-07
 247	2.470000000000016e-11
	-8.765338836117676e-08
	-1.215775278840609e-07
 248	2.480000000000016e-11
	-8.553043600641404e-08
	-1.186343912677378e-07
 249	2.490000000000016e-11
	-8.345908341779994e-08
	-1.157626577909264e-07
 250	2.500000000000017e-11
	-8.143806703053696e-08
	-1.129605877368131e-07
 251	2.510000000000017e-11
	-7.946615469600901e-08
	-1.102264837744570e-07
 252	2.520000000000017e-11
	-7.754214487707988e-08
	-1.075586906512844e-07
 253	2.530000000000017e-11
	-7.566486586544009e-08
	-1.049555933816343e-07
 254	2.540000000000017e-11
	-7.383317501963652e-08
	-1.024156170088597e-07
 255	2.550000000000017e-11
	-7.204595802401143e-08
	-9.993722484359100e-08
 256	2.560000000000018e-11
	-7.030212816738044e-08
	-9.751891826944082e-08
 257	2.570000000000018e-11
	-6.860062564082325e-08
	-9.515923502922681e-08
 258	2.580000000000018e-11
	-6.694041685433167e-08
	-9.285674910199171e-08
 259	2.590000000000018e-11
	-6.532049377186282e-08
	-9.061006901029232e-08
 260	2.600000000000018e-11
	-6.373987326353292e-08
	-8.841783775107416e-08
 261	2.610000000000018e-11
	-6.219759647582579e-08
	-8.627873115878112e-08
 262	2.620000000000018e-11
	-6.069272821768166e-08
	-8.419145786844343e-08
 263	2.630000000000019e-11
	-5.922435636312936e-08
	-8.215475771896665e-08
 264	2.640000000000019e-11
	-5.779159126992546e-08
	-8.016740177894560e-08
 265	2.650000000000019e-11
	-5.639356521253505e-08
	-7.822819075618130e-08
 266	2.660000000000019e-11
	-5.502943183127666e-08
	-7.633595509220887e-08
 267	2.670000000000019e-11
	-5.369836559514646e-08
	-7.448955339235571e-08
 268	2.680000000000019e-11
	-5.239956127859024e-08
	-7.268787257129897e-08
 269	2.690000000000020e-11
	-5.113223345191543e-08
	-7.092982630865657e-08
 270	2.700000000000020e-11
	-4.989561598560302e-08
	-6.921435522689426e-08
 271	2.710000000000020e-11
	-4.868896156730528e-08
	-6.754042539864031e-08
 272	2.720000000000020e-11
	-4.751154123044872e-08
	-6.590702854057482e-08
 273	2.730000000000020e-11
	-4.636264389635888e-08
	-6.431318055132343e-08
 274	2.740000000000020e-11
	-4.524157592724763e-08
	-6.275792176833708e-08
 275	2.750000000000021e-11
	-4.414766069137627e-08
	-6.124031549167777e-08
 276	2.760000000000021e-11
	-4.308023813917251e-08
	-5.975944829803655e-08
 277	2.770000000000021e-11
	-4.203866439012286e-08
	-5.831442859289174e-08
 278	2.780000000000021e-11
	-4.102231133048029e-08
	-5.690438695078594e-08
 279	2.790000000000021e-11
	-4.003056622096605e-08
	-5.552847468542740e-08
 280	2.800000000000021e-11
	-3.906283131530639e-08
	-5.418586423052196e-08
 281	2.810000000000022e-11
	-3.811852348778228e-08
	-5.287574772527046e-08
 282	2.820000000000022e-11
	-3.719707387009787e-08
	-5.159733743286888e-08
 283	2.830000000000022e-11
	-3.629792749858281e-08
	-5.034986433905286e-08
 284	2.840000000000022e-11
	-3.542054296930362e-08
	-4.913257860665036e-08
 285	2.850000000000022e-11
	-3.456439210259494e-08
	-4.794474818048481e-08
 286	2.860000000000022e-11
	-3.372895961563510e-08
	-4.678565928899790e-08
 287	2.870000000000022e-11
	-3.291374280367672e-08
	-4.565461504172772e-08
 288	2.880000000000023e-11
	-3.211825122957049e-08
	-4.455093599119391e-08
 289	2.890000000000023e-11
	-3.134200642035710e-08
	-4.347395871370006e-08
 290	2.900000000000023e-11
	-3.058454157230718e-08
	-4.242303642780965e-08
 291	2.910000000000023e-11
	-2.984540126313311e-08
	-4.139753754892654e-08
 292	2.920000000000023e-11
	-2.912414117114506e-08
	-4.039684637087330e-08
 293	2.930000000000023e-11
	-2.842032780207185e-08
	-3.942036162600758e-08
 294	2.940000000000023e-11
	-2.773353822236335e-08
	-3.846749719176078e-08
 295	2.950000000000023e-11
	-2.706335979928425e-08
	-3.753768063582644e-08
 296	2.960000000000023e-11
	-2.640938994768702e-08
	-3.663035398864014e-08
 297	2.970000000000022e-11
	-2.577123588284407e-08
	-3.574497227529281e-08
 298	2.980000000000022e-11
	-2.514851437931933e-08
	-3.488100430972765e-08
 299	2.990000000000022e-11
	-2.454085153696884e-08
	-3.403793125099720e-08
 300	3.000000000000022e-11
	-2.394788255134153e-08
	-3.321524741020170e-08
 301	3.010000000000022e-11
	-2.336925149079804e-08
	-3.241245881243997e-08
 302	3.020000000000022e-11
	-2.280461107879115e-08
	-3.162908404322036e-08
 303	3.030000000000021e-11
	-2.225362248152841e-08
	-3.086465279135447e-08
 304	3.040000000000021e-11
	-2.171595510155510e-08
	-3.011870675005786e-08
 305	3.050000000000021e-11
	-2.119128637556937e-08
	-2.939079813170134e-08
 306	3.060000000000021e-11
	-2.067930157757604e-08
	-2.868049062021801e-08
 307	3.070000000000021e-11
	-2.017969362755977e-08
	-2.798735786885595e-08
 308	3.080000000000021e-11
	-1.969216290402619e-08
	-2.731098449513181e-08
 309	3.090000000000020e-11
	-1.921641706169573e-08
	-2.665096456306667e-08
 310	3.100000000000020e-11
	-1.875217085378813e-08
	-2.600690261079320e-08
 311	3.110000000000020e-11
	-1.829914595794124e-08
	-2.537841213320638e-08
 312	3.120000000000020e-11
	-1.785707080777586e-08
	-2.476511663455502e-08
 313	3.130000000000020e-11
	-1.742568042754505e-08
	-2.416664810440938e-08
 314	3.140000000000020e-11
	-1.700471627089834e-08
	-2.358264809326123e-08
 315	3.150000000000019e-11
	-1.659392606455677e-08
	-2.301276620064889e-08
 316	3.160000000000019e-11
	-1.619306365487290e-08
	-2.245666116744528e-08
 317	3.170000000000019e-11
	-1.580188885871930e-08
	-2.191399934878005e-08
 318	3.180000000000019e-11
	-1.542016731740842e-08
	-2.138445584145930e-08
 319	3.190000000000019e-11
	-1.504767035548983e-08
	-2.086771296278289e-08
 320	3.200000000000019e-11
	-1.468417484165961e-08
	-2.036346137387308e-08
 321	3.210000000000019e-11
	-1.432946305377048e-08
	-1.987139858463108e-08
 322	3.220000000000018e-11
	-1.398332254741493e-08
	-1.939123008514094e-08
 323	3.230000000000018e-11
	-1.364554602683318e-08
	-1.892266784014457e-08
 324	3.240000000000018e-11
	-1.331593121975784e-08
	-1.846543145143965e-08
 325	3.250000000000018e-11
	-1.299428075531784e-08
	-1.801924665499561e-08
 326	3.260000000000018e-11
	-1.268040204479174e-08
	-1.758384648911743e-08
 327	3.270000000000018e-11
	-1.237410716480178e-08
	-1.715896978687652e-08
 328	3.280000000000017e-11
	-1.207521274440202e-08
	-1.674436238438869e-08
 329	3.290000000000017e-11
	-1.178353985389111e-08
	-1.633977559173054e-08
 330	3.300000000000017e-11
	-1.149891389715596e-08
	-1.594496742248313e-08
 331	3.310000000000017e-11
	-1.122116450615210e-08
	-1.555970106052181e-08
 332	3.320000000000017e-11
	-1.095012543818140e-08
	-1.518374611873755e-08
 333	3.330000000000017e-11
	-1.068563447552176e-08
	-1.481687708285972e-08
 334	3.340000000000016e-11
	-1.042753332797664e-08
	-1.445887461344878e-08
 335	3.350000000000016e-11
	-1.017566753724511e-08
	-1.410952395711789e-08
 336	3.360000000000016e-11
	-9.929886383633496e-09
	-1.376861628181766e-08
 337	3.370000000000016e-11
	-9.690042795785058e-09
	-1.343594708807276e-08
 338	3.380000000000016e-11
	-9.455993261552428e-09
	-1.311131754415086e-08
 339	3.390000000000016e-11
	-9.227597742031317e-09
	-1.279453291920444e-08
 340	3.400000000000015e-11
	-9.004719587166321e-09
	-1.248540390019664e-08
 341	3.410000000000015e-11
	-8.787225453391888e-09
	-1.218374504972869e-08
 342	3.420000000000015e-11
	-8.574985223347931e-09
	-1.188937612704267e-08
 343	3.430000000000015e-11
	-8.367871927861918e-09
	-1.160212053998195e-08
 344	3.440000000000015e-11
	-8.165761669538854e-09
	-1.132180667802907e-08
 345	3.450000000000015e-11
	-7.968533548125360e-09
	-1.104826638036889e-08
 346	3.460000000000014e-11
	-7.776069587831300e-09
	-1.078133625408173e-08
 347	3.470000000000014e-11
	-7.588254666495072e-09
	-1.052085615702567e-08
 348	3.480000000000014e-11
	-7.404976446474497e-09
	-1.026667052740018e-08
 349	3.490000000000014e-11
	-7.226125306915207e-09
	-1.001862685840941e-08
 350	3.500000000000014e-11
	-7.051594278109452e-09
	-9.776577039585256e-09
 351	3.510000000000014e-11
	-6.881278977303924e-09
	-9.540375839140182e-09
 352	3.520000000000013e-11
	-6.715077545913880e-09
	-9.309882237133199e-09
 353	3.530000000000013e-11
	-6.552890588135331e-09
	-9.084957927512149e-09
 354	3.540000000000013e-11
	-6.394621111642850e-09
	-8.865468648336469e-09
 355	3.550000000000013e-11
	-6.240174469251875e-09
	-8.651282681766865e-09
 356	3.560000000000013e-11
	-6.089458302143172e-09
	-8.442272204486093e-09
 357	3.570000000000013e-11
	-5.942382484145628e-09
	-8.238311772437440e-09
 358	3.580000000000012e-11
	-5.798859068152096e-09
	-8.039279683334466e-09
 359	3.590000000000012e-11
	-5.658802232952673e-09
	-7.845056473337552e-09
 360	3.600000000000012e-11
	-5.522128232098784e-09
	-7.655526274662514e-09
 361	3.610000000000012e-11
	-5.388755343440995e-09
	-7.470575309490589e-09
 362	3.620000000000012e-11
	-5.258603820128208e-09
	-7.290093270179766e-09
 363	3.630000000000012e-11
	-5.131595842855060e-09
	-7.113971787974521e-09
 364	3.640000000000011e-11
	-5.007655473332563e-09
	-6.942105845793916e-09
 365	3.650000000000011e-11
	-4.886708608487602e-09
	-6.774392238322069e-09
 366	3.660000000000011e-11
	-4.768682936171081e-09
	-6.610730977963918e-09
 367	3.670000000000011e-11
	-4.653507891962662e-09
	-6.451023773308584e-09
 368	3.680000000000011e-11
	-4.541114616849374e-09
	-6.295175437561989e-09
 369	3.690000000000011e-11
	-4.431435915583074e-09
	-6.143092347684317e-09
 370	3.700000000000010e-11
	-4.324406216922706e-09
	-5.994683883721772e-09
 371	3.710000000000010e-11
	-4.219961534089005e-09
	-5.849860878259202e-09
 372	3.720000000000010e-11
	-4.118039426694042e-09
	-5.708537060384505e-09
 373	3.730000000000010e-11
	-4.018578962999370e-09
	-5.570627498750603e-09
 374	3.740000000000010e-11
	-3.921520683521707e-09
	-5.436050064433584e-09
 375	3.750000000000010e-11
	-3.826806565448280e-09
	-5.304723861615842e-09
 376	3.760000000000010e-11
	-3.734379987939043e-09
	-5.176570709012840e-09
 377	3.770000000000009e-11
	-3.644185698254447e-09
	-5.051513543285355e-09
 378	3.780000000000009e-11
	-3.556169778545477e-09
	-4.929477949339231e-09
 379	3.790000000000009e-11
	-3.470279613701098e-09
	-4.810390515540940e-09
 380	3.800000000000009e-11
	-3.386463859717015e-09
	-4.694180407471766e-09
 381	3.810000000000009e-11
	-3.304672413081354e-09
	-4.580777699442810e-09
 382	3.820000000000009e-11
	-3.224856380789741e-09
	-4.470114953026001e-09
 383	3.830000000000008e-11
	-3.146968050747669e-09
	-4.362125561797797e-09
 384	3.840000000000008e-11
	-3.070960864020584e-09
	-4.256745339235101e-09
 385	3.850000000000008e-11
	-2.996789386074552e-09
	-4.153910827400601e-09
 386	3.860000000000008e-11
	-2.924409280011696e-09
	-4.053560933085820e-09
 387	3.870000000000008e-11
	-2.853777279942678e-09
	-3.955635202729139e-09
 388	3.880000000000008e-11
	-2.784851165293724e-09
	-3.860075488342017e-09
 389	3.890000000000007e-11
	-2.717589735168026e-09
	-3.766824192047349e-09
 390	3.900000000000007e-11
	-2.651952784163779e-09
	-3.675825973842618e-09
 391	3.910000000000007e-11
	-2.587901077846977e-09
	-3.587025955372790e-09
 392	3.920000000000007e-11
	-2.525396329692721e-09
	-3.500371467787746e-09
 393	3.930000000000007e-11
	-2.464401177795914e-09
	-3.415810230681605e-09
 394	3.940000000000007e-11
	-2.404879162942550e-09
	-3.333292110089648e-09
 395	3.950000000000006e-11
	-2.346794706445544e-09
	-3.252767296621218e-09
 396	3.960000000000006e-11
	-2.290113089072257e-09
	-3.174188080776840e-09
 397	3.970000000000006e-11
	-2.234800430240709e-09
	-3.097507004245278e-09
 398	3.980000000000006e-11
	-2.180823667489326e-09