Title: CKT1
Date: Thu Nov  2 17:07:50 2017
Plotname: Transient analysis
Flags: real
No. Variables: 31
No. Points: 101     
Dimensions: 1,101
Command: version 4.3.1
Variables:
 0 time S
 1 L0#branch A
 2 L1#branch A
 3 L2#branch A
 4 L3#branch A
 5 L4#branch A
 6 L5#branch A
 7 L6#branch A
 8 L7#branch A
 9 L8#branch A
 10 V0#branch A
 11 V1#branch A
 12 v(6) V
 13 v(7) V
 14 v(8) V
 15 v(9) V
 16 v(10) V
 17 v(11) V
 18 v(12) V
 19 v(13) V
 20 v(14) V
 21 v(16) V
 22 v(17) V
 23 v(18) V
 24 v(19) V
 25 v(20) V
 26 v(J1) V
 27 v(J2) V
 28 v(J3) V
 29 v(VCC) V
 30 v(VIN) V
Values:
 0	0.000000000000000e+00
	0.000000000000000e+00
	0.000000000000000e+00
	0.000000000000000e+00
	0.000000000000000e+00
	0.000000000000000e+00
	0.000000000000000e+00
	0.000000000000000e+00
	0.000000000000000e+00
	0.000000000000000e+00
	0.000000000000000e+00
	0.000000000000000e+00
	0.000000000000000e+00
	0.000000000000000e+00
	0.000000000000000e+00
	0.000000000000000e+00
	0.000000000000000e+00
	0.000000000000000e+00
	0.000000000000000e+00
	0.000000000000000e+00
	0.000000000000000e+00
	0.000000000000000e+00
	0.000000000000000e+00
	0.000000000000000e+00
	0.000000000000000e+00
	0.000000000000000e+00
	0.000000000000000e+00
	0.000000000000000e+00
	0.000000000000000e+00
	0.000000000000000e+00
	0.000000000000000e+00
 1	1.000000000000000e-12
	-1.000000000000000e-04
	-4.428133487063818e-09
	4.678678244940445e-07
	3.255610704985437e-05
	4.679080718269520e-07
	2.665681260991189e-09
	1.061777585066711e-11
	3.600932942695024e-14
	1.123500293452541e-16
	-3.934541387215379e-06
	4.428133487063818e-09
	-2.257046277254472e-03
	3.792680332710218e-07
	-5.272776731235191e-05
	5.436535048385808e-05
	1.251796321013929e-06
	8.207919106716796e-07
	8.188120743441652e-07
	8.188048954373464e-07
	8.188048722179734e-07
	1.193681971240973e-03
	8.696913215097866e-04
	8.684008220990361e-04
	8.683964454744906e-04
	8.683964318193100e-04
	5.382015721702492e-04
	-5.632711187110928e-02
	5.806388713197039e-02
	5.000000000000000e-05
	0.000000000000000e+00
 2	2.000000000000000e-12
	-9.999999999999999e-05
	2.378852146937063e-08
	2.959953235883122e-06
	2.743272689537338e-05
	2.961060790157217e-06
	7.015680011468043e-08
	1.047675037849784e-09
	1.467465162467347e-11
	2.309927649352874e-13
	-3.808950161614453e-06
	-2.378852146937063e-08
	-9.531528646541872e-05
	-3.405290192340073e-06
	-1.398863627615518e-04
	1.446600177882933e-04
	8.089545862798645e-06
	2.486832217454137e-06
	2.387675655585592e-06
	2.386292768628574e-06
	2.386272499686412e-06
	1.455416602697999e-02
	6.027209865775465e-03
	5.899873968124338e-03
	5.898090390326035e-03
	5.898062315140495e-03
	-2.891290357850212e-03
	-3.626481698097886e-01
	3.744456591831631e-01
	5.000000000000000e-05
	0.000000000000000e+00
 3	3.000000000000000e-12
	-1.000000000000000e-04
	2.775668097203212e-07
	6.805507235957818e-06
	1.907814475632210e-05
	6.812095735952896e-06
	3.852269853682489e-07
	1.213297948033380e-08
	3.021369366436686e-10
	6.846053562580324e-12
	-3.687661909069834e-06
	-2.775668097203212e-07
	-1.286023447303407e-04
	-1.690864554214466e-05
	-1.881081759077565e-04
	1.958106379597193e-04
	2.426181127983010e-05
	4.646630133375341e-06
	3.858437952174002e-06
	3.836811194738115e-06
	3.836302023080992e-06
	6.368301409885911e-02
	1.686198447694676e-02
	1.538732508591857e-02
	1.535060293768448e-02
	1.534977085870553e-02
	-3.373586045004518e-02
	-8.608867818277948e-01
	8.916347110327097e-01
	5.000000000000000e-05
	0.000000000000000e+00
 4	4.000000000000000e-12
	-1.000000000000000e-04
	9.963225636710772e-07
	1.081188288508735e-05
	9.400629304725182e-06
	1.083370702714732e-05
	1.154476701186952e-06
	5.947523919302955e-08
	2.174797434367113e-09
	6.630851078494461e-11
	-3.560598163875442e-06
	-9.963225636710772e-07
	-1.307380343991198e-04
	-4.061326694905600e-05
	-1.899071039212566e-04
	2.003874214166784e-04
	5.022356630817256e-05
	8.278365307964943e-06
	5.277328240981543e-06
	5.149061768763362e-06
	5.144811440207614e-06
	1.768104441520598e-01
	3.649372212281132e-02
	2.926501789959808e-02
	2.900068996058098e-02
	2.899263073091752e-02
	-1.210944457123904e-01
	-1.435185898437099e+00
	1.493554433798308e+00
	5.000000000000000e-05
	0.000000000000000e+00
 5	5.000000000000000e-12
	-1.000000000000000e-04
	2.380854557651563e-06
	1.367406722261214e-05
	6.106502202630829e-07
	1.372706847434682e-05
	2.516755187144955e-06
	1.960249875900566e-07
	9.958728494369709e-09
	3.957507893304234e-10
	-3.409776946238846e-06
	-2.380854557651563e-06
	-1.047915773355435e-04
	-7.017681075596784e-05
	-1.497950826636585e-04
	1.630410336476217e-04
	8.179790531205063e-05
	1.473715591674335e-05
	6.809905328402052e-06
	6.315158568920855e-06
	6.293040022003172e-06
	3.773417694335695e-01
	7.145180418159752e-02
	4.762665148152003e-02
	4.641625361340147e-02
	4.636815350584431e-02
	-2.893724115996387e-01
	-1.951337774358239e+00
	2.045748978874057e+00
	5.000000000000000e-05
	0.000000000000000e+00
 6	5.999999999999999e-12
	-1.000000000000000e-04
	4.475307492063039e-06
	1.447762531264045e-05
	-5.552147634633430e-06
	1.457913098833050e-05
	4.430301257536627e-06
	5.000945774055144e-07
	3.422632734038977e-08
	1.737136146806156e-09
	-3.214306054047400e-06
	-4.475307492063039e-06
	-6.031715417855146e-05
	-9.740548517015799e-05
	-8.198354675544843e-05
	9.808230147341606e-05
	1.112480957858511e-04
	2.520651755547636e-05
	8.800567050921144e-06
	7.353093899757864e-06
	7.267850755444013e-06
	6.705876763450632e-01
	1.321226303025879e-01
	7.134043198364529e-02
	6.718051601949813e-02
	6.696938204894010e-02
	-5.439351670879095e-01
	-2.303566110309876e+00
	2.442555762157738e+00
	5.000000000000000e-05
	0.000000000000000e+00
 7	6.999999999999999e-12
	-1.000000000000000e-04
	7.104633193302398e-06
	1.293744780387341e-05
	-8.169641138293642e-06
	1.309186015379631e-05
	6.631248095289464e-06
	1.057480560701885e-06
	9.549993020548707e-08
	6.099698814913356e-09
	-2.957381940405966e-06
	-7.104633193302398e-06
	-9.778576132090906e-06
	-1.129563156170005e-04
	-5.076203906345774e-06
	2.411594929909023e-05
	1.300198021114660e-04
	3.998054835048116e-05
	1.178476489851394e-05
	8.328586356171791e-06
	8.064674467026669e-06
	1.037109904148498e+00
	2.311386838223833e-01
	1.026110091323838e-01
	9.100381329492885e-02
	9.026244732176164e-02
	-8.635071109529050e-01
	-2.435942713505655e+00
	2.628313000891247e+00
	5.000000000000000e-05
	0.000000000000000e+00
 8	8.000000000000000e-12
	-1.000000000000000e-04
	9.884485538672101e-06
	9.437373123843000e-06
	-7.242760295699332e-06
	9.613411450272544e-06
	8.679799067628693e-06
	1.928399205302885e-06
	2.264578614383887e-07
	1.799441376191241e-08
	-2.632805780837119e-06
	-9.884485538672101e-06
	3.465938249775667e-05
	-1.094300478116488e-04
	6.275870771683732e-05
	-4.071054897378660e-05
	1.317262739469567e-04
	5.789525104855567e-05
	1.640504404827353e-05
	9.381386916391528e-06
	8.693355024708882e-06
	1.434767886280702e+00
	3.798128994975086e-01
	1.454325477990201e-01
	1.179085408076977e-01
	1.157214744500020e-01
	-1.201374274860642e+00
	-2.348405877961083e+00
	2.603195435172611e+00
	5.000000000000000e-05
	0.000000000000000e+00
 9	9.000000000000000e-12
	-1.000000000000000e-04
	1.229928856711646e-05
	4.893401723322557e-06
	-3.574343300058603e-06
	4.999904045570576e-06
	1.007789168846115e-05
	3.109408330029673e-06
	4.700518629531231e-07
	4.604570065981195e-08
	-2.250220133152504e-06
	-1.229928856711646e-05
	6.367458704909583e-05
	-8.373148424301174e-05
	1.076185781830841e-04
	-8.247027272121002e-05
	1.141991362883261e-04
	7.621536311474427e-05
	2.321372549164056e-05
	1.074488959291677e-05
	9.188050978259629e-06
	1.808417622473143e+00
	5.835364921421443e-01
	2.056146303396251e-01
	1.484838657901870e-01
	1.428874065688948e-01
	-1.494872831348829e+00
	-2.089623759351928e+00
	2.416112992517368e+00
	5.000000000000000e-05
	0.000000000000000e+00
 10	9.999999999999999e-12
	-1.000000000000000e-04
	1.382181123226805e-05
	4.946371256906200e-07
	1.508425084859899e-06
	3.654583549552936e-07
	1.041436068049521e-05
	4.505819832673478e-06
	8.715260068411597e-07
	1.044989620850836e-07
	-1.837171046843496e-06
	-1.382181123226805e-05
	7.254205245821878e-05
	-3.802837397531688e-05
	1.224965148053583e-04
	-9.406453463484406e-05
	8.000304237455046e-05
	9.111505428358992e-05
	3.239784822580882e-05
	1.274208630554303e-05
	9.621257930960773e-06
	2.103510341619323e+00
	8.377342967541778e-01
	2.900906168729879e-01
	1.841641202035772e-01
	1.714631693743728e-01
	-1.679922377414382e+00
	-1.740041269376012e+00
	2.147928664096343e+00
	5.000000000000001e-05
	5.206008686296708e-14
 11	1.100000000000000e-11
	-9.999999999999999e-05
	1.404010836659574e-05
	-2.610062632972041e-06
	6.523889958383189e-06
	-3.209761715669663e-06
	9.488684870376671e-06
	5.928875919443268e-06
	1.464297904515447e-06
	2.137477577342859e-07
	-1.435588536006161e-06
	-1.404010836659574e-05
	6.185231202910511e-05
	2.061945986255924e-05
	1.084037391282905e-04
	-7.624504250135663e-05
	3.564807650178305e-05
	9.863931950259252e-05
	4.351474149125489e-05
	1.574110450656134e-05
	1.011974790769903e-05
	2.279278405209133e+00
	1.126010300265217e+00
	4.054063820751796e-01
	2.274335552310694e-01
	2.014543521206551e-01
	-1.706454510197585e+00
	-1.389223826743230e+00
	1.889159451769282e+00
	5.000000000000000e-05
	5.183388889537454e-12
 12	1.200000000000000e-11
	-1.000000000000000e-04
	1.276355229139463e-05
	-3.611436349051905e-06
	1.021661265923847e-05
	-4.946060422321986e-06
	7.379502445368610e-06
	7.123872371946920e-06
	2.252492528720399e-06
	3.987957882716721e-07
	-1.094042660857714e-06
	-1.276355229139463e-05
	3.708165323923653e-05
	8.156314351032726e-05
	7.379882225985324e-05
	-3.690168135619769e-05
	-9.970679643006456e-06
	9.581402166638622e-05
	5.535206159865418e-05
	2.006291317366138e-05
	1.087713270455055e-05
	2.318355081086150e+00
	1.421439974634586e+00
	5.555945068493957e-01
	2.818233967867448e-01
	2.333531957754819e-01
	-1.551299680242989e+00
	-1.112360626908053e+00
	1.717203940742404e+00
	5.000000000000000e-05
	2.640569981512794e-10
 13	1.300000000000000e-11
	-1.000000000000000e-04
	1.008791944722586e-05
	-2.259969662240348e-06
	1.186062847114038e-05
	-4.547063466574987e-06
	4.443913812739703e-06
	7.823898620789072e-06
	3.195455745189367e-06
	6.847745636293162e-07
	-8.601397293162915e-07
	-1.008791944722586e-05
	6.945787968720697e-06
	1.325456897196207e-04
	3.210379830093477e-05
	1.136841681223235e-05
	-4.756434089108497e-05
	8.152145722763330e-05
	6.600442067501356e-05
	2.585166415578944e-05
	1.215492106823171e-05
	2.230999117113551e+00
	1.690879581965689e+00
	7.399519393120293e-01
	3.515717536456466e-01
	2.683432900493813e-01
	-1.226085836998323e+00
	-9.514059456110993e-01
	1.678342627958960e+00
	5.000000000000000e-05
	8.730904769614864e-09
 14	1.400000000000000e-11
	-1.000000000000000e-04
	6.405471443183049e-06
	1.052961399688809e-06
	1.140328278139329e-05
	-2.253880791397694e-06
	1.249344319166717e-06
	7.814763787808103e-06
	4.200490318026833e-06
	1.089377382317902e-06
	-7.734841635525362e-07
	-6.405471443183049e-06
	-1.922696360097656e-05
	1.622759554278398e-04
	-2.379784612519496e-06
	5.501880384585694e-05
	-6.956691779889525e-05
	5.691184009805923e-05
	7.318959507255741e-05
	3.293914780326454e-05
	1.426294380858326e-05
	2.053078574796415e+00
	1.901231509046972e+00
	9.514141268419263e-01
	4.408806256156632e-01
	3.084761663636976e-01
	-7.782178691171887e-01
	-9.061962786214777e-01
	1.779138733335379e+00
	5.000000000000000e-05
	1.875229435856467e-07
 15	1.500000000000000e-11
	-1.000000000000000e-04
	2.368451992244495e-06
	5.390010951658808e-06
	9.406783232499691e-06
	1.246138669040861e-06
	-1.547813041825105e-06
	6.994075490458609e-06
	5.128529042671690e-06
	1.613244615259190e-06
	-8.549249632872552e-07
	-2.368451992244495e-06
	-3.428986800613298e-05
	1.634694208900840e-04
	-1.885822152560855e-05
	8.350791713377551e-05
	-7.193917682865533e-05
	2.532814153382855e-05
	7.473705871747096e-05
	4.074996906679874e-05
	1.751239468358064e-05
	1.838097898686524e+00
	2.026221272782966e+00
	1.176151500532674e+00
	5.528228674302211e-01
	3.567468478693473e-01
	-2.833275178932580e-01
	-9.384370299872937e-01
	1.989555345210936e+00
	5.000000000000000e-05
	2.595065916625587e-06
 16	1.600000000000000e-11
	-9.999999999999999e-05
	-1.055289826697037e-06
	9.531485873593448e-06
	6.812684492167304e-06
	5.029704398246747e-06
	-3.351939694267077e-06
	5.410406719036935e-06
	5.813797244250917e-06
	2.230590647136690e-06
	-1.091631616074458e-06
	1.055289826697037e-06
	-3.522785646204393e-05
	1.358154792410839e-04
	-1.314523940030336e-05
	9.202109249169284e-05
	-5.521095110355094e-05
	-8.195243079498408e-06
	6.911637206504366e-05
	4.829417573455266e-05
	2.214115244353390e-05
	1.644899838083216e+00
	2.052299303014570e+00
	1.394710860666831e+00
	6.880937665173804e-01
	4.169846419473245e-01
	1.714045992921024e-01
	-9.870655997822264e-01
	2.256217184905783e+00
	5.000000000000000e-05
	2.283081671699713e-05
 17	1.700000000000000e-11
	-1.000000000000000e-04
	-2.000924586715734e-06
	1.235571089256126e-05
	4.615918573034030e-06
	8.201841836625408e-06
	-3.772855503224038e-06
	3.273231030596799e-06
	6.094239309080297e-06
	2.883179791525635e-06
	-1.417521812354325e-06
	2.000924586715734e-06
	-2.363003278634478e-05
	8.845847925854694e-05
	1.154917844280777e-05
	8.209232583259308e-05
	-2.440882135494292e-05
	-3.780881651615103e-05
	5.586995938539715e-05
	5.427486648155786e-05
	2.822064723475877e-05
	1.523892094614097e+00
	1.982450258982526e+00
	1.584617155737088e+00
	8.439147385876022e-01
	4.934890115444228e-01
	5.122051631951550e-01
	-9.895253169460181e-01
	2.520755487296166e+00
	5.000000000000000e-05
	1.259254721259536e-04
 18	1.800000000000000e-11
	-1.000000000000000e-04
	3.309999211518264e-06
	1.327255080778894e-05
	3.559700237791929e-06
	1.013336551038382e-05
	-2.727468165207758e-06
	9.288543278543133e-07
	5.846458637811077e-06
	3.480663972498780e-06
	-1.677072463599806e-06
	-3.309999211518264e-06
	-4.656295688361024e-06
	4.270250177857874e-05
	4.634292736754467e-05
	6.024344777748049e-05
	1.227841975642961e-05
	-5.800749089159727e-05
	3.586489347060194e-05
	5.730434648097606e-05
	3.556370790000525e-05
	1.505409494014082e+00
	1.836909810986791e+00
	1.724015549549381e+00
	1.013428743688506e+00
	5.903839489306754e-01
	7.115424173805063e-01
	-9.016220755892099e-01
	2.737032990685277e+00
	5.000000000000000e-05
	4.304361196777401e-04
 19	1.900000000000000e-11
	-1.000000000000000e-04
	1.905285312973132e-05
	1.262276408478881e-05
	3.947945421781010e-06
	1.060409043651489e-05
	-4.657471124922917e-07
	-1.197327469417266e-06
	5.018009871138971e-06
	3.909123835076849e-06
	-1.598918481014842e-06
	-1.905285312973132e-05
	1.507946075093466e-05
	3.207876451935469e-05
	8.046737879251869e-05
	3.545040264486211e-05
	4.581380090987426e-05
	-6.487764642099998e-05
	1.132837370181790e-05
	5.618732726115289e-05
	4.365975048993529e-05
	1.593617804897474e+00
	1.650225364021288e+00
	1.795750228690687e+00
	1.185854251141105e+00
	7.107338420584075e-01
	8.251751713500813e-01
	-7.090133293836997e-01
	2.882453871163414e+00
	5.000000000000000e-05
	9.042481011787965e-04
 20	2.000000000000000e-11
	-1.000000000000000e-04
	4.335400693252293e-05
	1.180325818211329e-05
	5.631147769008757e-06
	9.818968235987763e-06
	2.492742670597197e-06
	-2.685160723173770e-06
	3.650461456623576e-06
	4.047710466701801e-06
	-8.942789968176439e-07
	-4.335400693252293e-05
	3.004130885577669e-05
	8.890953937107057e-05
	1.060550730403259e-04
	1.637223182058615e-05
	6.886000182682636e-05
	-5.714353774367174e-05
	-1.435441423651299e-05
	5.020967634952326e-05
	5.166352989008816e-05
	1.767803591458857e+00
	1.464832141241611e+00
	1.791190352204255e+00
	1.347508132406396e+00
	8.555437091944442e-01
	1.008910982044644e+00
	-4.256736186460932e-01
	2.961214801201413e+00
	5.000000000000000e-05
	1.161049020947434e-03
 21	2.100000000000000e-11
	-1.000000000000000e-04
	6.539116942893078e-05
	1.278160407711744e-05
	8.162612426126670e-06
	8.306395752787257e-06
	5.497379915485598e-06
	-3.215253277084330e-06
	1.887647275057105e-06
	3.791234814839743e-06
	5.040498202079563e-07
	-6.539116942893078e-05
	3.780411162870764e-05
	2.175228626333302e-04
	1.220034353248544e-04
	9.146164127824728e-06
	7.768072633372343e-05
	-3.667645883342000e-05
	-3.709952589736590e-05
	3.937337903104149e-05
	5.845439930080741e-05
	1.990424469781635e+00
	1.322265182810063e+00
	1.713051588348110e+00
	1.483624283569125e+00
	1.022832271816493e+00
	1.474278984371717e+00
	-7.921515243751863e-02
	2.999995492488691e+00
	5.000000000000000e-05
	9.080018391679107e-04
 22	2.200000000000000e-11
	-1.000000000000000e-04
	7.463823732320755e-05
	1.707923089302915e-05
	1.105210299568736e-05
	6.743241157797007e-06
	7.940107935239770e-06
	-2.652708828197593e-06
	-3.540350957288226e-08
	3.075180785955055e-06
	2.332469201637588e-06
	-7.463823732320755e-05
	3.962949714047405e-05
	3.831713054126108e-04
	1.346394889686900e-04
	1.633286269186305e-05
	7.281579142248278e-05
	-8.182612891882720e-06
	-5.283116737152858e-05
	2.453350808463462e-05
	6.276774384688905e-05
	2.219090547567401e+00
	1.254038661387456e+00
	1.576452623391232e+00
	1.580755615739617e+00
	1.206993817784835e+00
	2.386489409794446e+00
	3.106556651839231e-01
	3.038673562228490e+00
	5.000000000000000e-05
	4.315074127517552e-04
 23	2.300000000000000e-11
	-1.000000000000000e-04
	7.002464605509068e-05
	2.496034647535835e-05
	1.399544596023238e-05
	5.772670824584530e-06
	9.403943340776877e-06
	-1.084360050227871e-06
	-1.824944310004616e-06
	1.894924123811866e-06
	4.189392233920840e-06
	-7.002464605509068e-05
	3.926985374519496e-05
	5.342608684211394e-04
	1.545260583897729e-04
	3.729308178879072e-05
	5.840579341822433e-05
	2.199312481883239e-05
	-5.827471071666380e-05
	7.377753588048437e-06
	6.335725368393978e-05
	2.418426941846348e+00
	1.275458441598623e+00
	1.407253087251507e+00
	1.629059385466536e+00
	1.398747642255038e+00
	3.783481237017269e+00
	7.497656197720521e-01
	3.120045473105396e+00
	5.000000000000000e-05
	1.255227457563318e-04
 24	2.400000000000000e-11
	-1.000000000000000e-04
	5.699936906581116e-05
	3.531782745814333e-05
	1.696504377826824e-05
	5.853419103557992e-06
	9.757263019617587e-06
	1.196096304383356e-06
	-3.188653417744375e-06
	3.205805391577168e-07
	5.727704685769458e-06
	-5.699936906581116e-05
	4.084192234449227e-05
	6.262989912603541e-04
	1.912393976064752e-04
	6.931329730525038e-05
	4.067964215811486e-05
	4.763422461968921e-05
	-5.186048136784503e-05
	-9.799901189539206e-06
	5.926529818444631e-05
	2.568776918392426e+00
	1.382865447435648e+00
	1.237490220296098e+00
	1.625043641517369e+00
	1.586079831892860e+00
	5.563437374898139e+00
	1.270858951248553e+00
	3.280209709050049e+00
	5.000000000000000e-05
	2.234260110930515e-05
 25	2.500000000000000e-11
	-1.000000000000000e-04
	4.140767847274351e-05
	4.568296241458363e-05
	2.021907130658846e-05
	7.233308405689764e-06
	9.181261401325498e-06
	3.701937714320180e-06
	-3.853406742110204e-06
	-1.484116385300106e-06
	6.669858952564783e-06
	-4.140767847274351e-05
	4.713434655802947e-05
	6.259703942209190e-04
	2.496296166026898e-04
	1.089186329816586e-04
	2.719737388361059e-05
	6.363179514125331e-05
	-3.417669846493707e-05
	-2.402070860585036e-05
	4.983548949713448e-05
	2.670234636462028e+00
	1.554331212336506e+00
	1.104392495777045e+00
	1.572740971014702e+00
	1.753122563887996e+00
	7.487900943254580e+00
	1.935529438477272e+00
	3.549381113709678e+00
	5.000000000000001e-05
	2.395162679840825e-06
 26	2.600000000000000e-11
	-1.000000000000000e-04
	2.670957046170825e-05
	5.323321847858574e-05
	2.411302996679968e-05
	9.890442862889983e-06
	8.131232921652498e-06
	5.912633219162853e-06
	-3.675626138514688e-06
	-3.273071524695364e-06
	7.083429001014654e-06
	-2.670957046170825e-05
	5.759043800095537e-05
	5.424277838822331e-04
	3.255355500624670e-04
	1.536098150084429e-04
	2.427993484995289e-05
	6.826272983569010e-05
	-8.396080674281177e-06
	-3.244025580712978e-05
	3.506342294409036e-05
	2.745501626501555e+00
	1.757220140656458e+00
	1.038590383103795e+00
	1.485331153732727e+00
	1.883144870406560e+00
	9.277065746295841e+00
	2.807025500093951e+00
	3.947599962926589e+00
	5.000000000000001e-05
	1.598834670553690e-07
 27	2.700000000000000e-11
	-9.999999999999999e-05
	1.469154474330779e-05
	5.612174664610096e-05
	2.882372082599160e-05
	1.359459825612734e-05
	7.184291471389064e-06
	7.435452574808232e-06
	-2.699847358859733e-06
	-4.758671668302968e-06
	7.209391403677921e-06
	-1.469154474330779e-05
	6.869162610529849e-05
	4.102000029330149e-04
	4.068190543529844e-04
	2.017527495957250e-04
	3.555102531829880e-05
	6.352816962343205e-05
	2.048459356781966e-05
	-3.323210660937166e-05
	1.583565158588912e-05
	2.832527462782556e+00
	1.959338572671939e+00
	1.055623208794642e+00
	1.383766454115255e+00
	1.962142101733976e+00
	1.073791960772902e+01
	3.916803585343706e+00
	4.484834055581802e+00
	5.000000000000000e-05
	5.586608290632243e-09
 28	2.800000000000000e-11
	-9.999999999999999e-05
	6.427581297900673e-06
	5.333597820231851e-05
	3.419378289613903e-05
	1.806090888662156e-05
	6.930322014714039e-06
	8.044416376589731e-06
	-1.096494540158392e-06
	-5.618963641294347e-06
	7.081929766119154e-06
	-6.427581297900673e-06
	7.383626225403880e-05
	2.529154013180971e-04
	4.719415220897847e-04
	2.515168456625034e-04
	6.285630490138305e-05
	5.385252260562796e-05
	4.697131869892969e-05
	-2.552752153536343e-05
	-6.333417129047019e-06
	2.980006365265726e+00
	2.137685280126445e+00
	1.159955599275406e+00
	1.293225087901559e+00
	1.976161831914964e+00
	1.174233886823830e+01
	5.259809060682772e+00
	5.175154633943754e+00
	5.000000000000000e-05
	1.469414106425541e-10
 29	2.900000000000000e-11
	-9.999999999999999e-05
	2.108737607076161e-06
	4.547713906459355e-05
	3.947124925602688e-05
	2.288244973745567e-05
	7.776301295202608e-06
	7.837710167299427e-06
	8.039679612784023e-07
	-5.632195184520434e-06
	6.681176146192001e-06
	-2.108737607076161e-06
	6.555567088344783e-05
	9.754288574643027e-05
	4.947069932967794e-04
	2.990025101426651e-04
	1.044400554863514e-04
	4.552447620467975e-05
	6.671584128871370e-05
	-1.084340939165249e-05
	-2.897173815476703e-05
	3.232651660813998e+00
	2.287509064057570e+00
	1.334902746615155e+00
	1.237187349823569e+00
	1.921732274210787e+00
	1.226725734216630e+01
	6.739901896836523e+00
	6.013816785980842e+00
	5.000000000000000e-05
	2.525233527885268e-12
 30	3.000000000000000e-11
	-1.000000000000000e-04
	1.319009092571388e-06
	3.419801407029469e-05
	4.355008600824088e-05
	2.762463630842903e-05
	9.916272814201600e-06
	7.126059586277477e-06
	2.665619894782743e-06
	-4.690672270292048e-06
	6.104351027144455e-06
	-1.319009092571388e-06
	4.159758681269574e-05
	-2.926559334295400e-05
	4.631445785777853e-04
	3.389625800118315e-04
	1.568703875926563e-04
	4.453871931273253e-05
	7.758305916220840e-05
	7.874262888262423e-06
	-4.927289148807684e-05
	3.627397511775112e+00
	2.422159766737936e+00
	1.556048461846699e+00
	1.232065270650798e+00
	1.802176175794383e+00
	1.236324205871009e+01
	8.206767329232795e+00
	6.984934662645014e+00
	5.000000000000000e-05
	2.004124622138871e-14
 31	3.100000000000000e-11
	-1.000000000000000e-04
	3.105117100898523e-06
	2.169243380426546e-05
	4.542620977759716e-05
	3.184886674301679e-05
	1.331132350721950e-05
	6.369242842290005e-06
	4.219113751358311e-06
	-2.838465374730347e-06
	5.582644487944547e-06
	-3.105117100898523e-06
	6.255650579898580e-06
	-1.094355955473831e-04
	3.866678670124583e-04
	3.679927646599725e-04
	2.150828104934997e-04
	5.564277756995065e-05
	7.994408311746387e-05
	2.672737116291414e-05
	-6.435762967442135e-05
	4.188811616813215e+00
	2.570934635421057e+00
	1.796807902053863e+00
	1.284010882546705e+00
	1.629001956481932e+00
	1.214615597923683e+01
	9.509627064342695e+00
	8.059767676066572e+00
	5.000000000000000e-05
	0.000000000000000e+00
 32	3.200000000000001e-11
	-1.000000000000000e-04
	6.246758177659709e-06
	1.021093286404084e-05
	4.432433258730835e-05
	3.518600087395961e-05
	1.771507223498823e-05
	6.111271990579805e-06
	5.313654764338141e-06
	-2.627859080522093e-07
	5.299327658279794e-06
	-6.246758177659709e-06
	-3.591528010745662e-05
	-1.351393110512148e-04
	2.786279776548711e-04
	3.858464872977596e-04
	2.720024478160908e-04
	8.209031508053476e-05
	7.632750535341935e-05
	4.153676081312033e-05
	-7.135941713660173e-05
	4.930773642151723e+00
	2.777658846531111e+00
	2.034886253315773e+00
	1.389057179623372e+00
	1.420996548495395e+00
	1.176431650406133e+01
	1.052326536212848e+01
	9.207329677346040e+00
	5.000000000000000e-05
	0.000000000000000e+00
 33	3.300000000000001e-11
	-1.000000000000000e-04
	9.413369661301316e-06
	1.674450716490815e-06
	3.995794060145370e-05
	3.749661410780386e-05
	2.257321990493834e-05
	6.836178322011664e-06
	6.005840271965592e-06
	2.652066784437152e-06
	5.253834152770077e-06
	-9.413369661301316e-06
	-7.925629031130078e-05
	-1.141651696827486e-04
	1.543344029205279e-04
	3.909395832665752e-04
	3.186997970871093e-04
	1.235751501561138e-04
	7.140237347721536e-05
	4.927442885808668e-05
	-6.867715080587172e-05
	5.833297516309502e+00
	3.089716619917366e+00
	2.258837891601865e+00
	1.528879617756202e+00
	1.206543690654102e+00
	1.137944209051281e+01
	1.117592699532209e+01
	1.039068873381377e+01
	5.000000000000001e-05
	0.000000000000000e+00
 34	3.400000000000001e-11
	-1.000000000000000e-04
	1.165505168026646e-05
	-2.872272862712525e-06
	3.265636219943668e-05
	3.873058488780617e-05
	2.719741078636654e-05
	8.824988645036563e-06
	6.523298578919946e-06
	5.468579205060742e-06
	5.326192609564668e-06
	-1.165505168026646e-05
	-1.142059384589661e-04
	-6.347805850919379e-05
	3.357898039258589e-05
	3.745199525165673e-04
	3.484120784804602e-04
	1.766157906499725e-04
	7.010902285513402e-05
	4.919603343315117e-05
	-5.633453886221041e-05
	6.850921074019008e+00
	3.545309513991613e+00
	2.472707981761690e+00
	1.679857097485700e+00
	1.015198289367253e+00
	1.110698490501075e+01
	1.145608498858542e+01
	1.155829083569985e+01
	5.000000000000000e-05
	0.000000000000000e+00
 35	3.500000000000001e-11
	-9.999999999999999e-05
	1.246285169185643e-05
	-3.249503080441309e-06
	2.342614371967270e-05
	3.864753929692835e-05
	3.092146874502855e-05
	1.215914596796903e-05
	7.193586783289749e-06
	7.777528661286834e-06
	5.412102134165422e-06
	-1.246285169185643e-05
	-1.302238588376178e-04
	-2.169601765640635e-06
	-6.232618704587064e-05
	3.264333610558023e-04
	3.601543544925494e-04
	2.351648910624182e-04
	7.685696270932956e-05
	4.269323683814551e-05
	-3.559680393019149e-05
	7.930536229893848e+00
	4.172297427697649e+00
	2.694457724959218e+00
	1.820139069566372e+00
	8.748472970097829e-01
	1.100880375543453e+01
	1.140375293024480e+01
	1.262781251365609e+01
	5.000000000000000e-05
	0.000000000000000e+00
 36	3.600000000000002e-11
	-1.000000000000000e-04
	1.182615254330424e-05
	-2.984231165069688e-07
	1.389057007157823e-05
	3.686477523854685e-05
	3.335322573646109e-05
	1.660880420838768e-05
	8.362705070879699e-06
	9.299971543388064e-06
	5.489586469755059e-06
	-1.182615254330424e-05
	-1.226922894250144e-04
	5.214366512494836e-05
	-1.186806238808972e-04
	2.475947992111747e-04
	3.590594526076689e-04
	2.902698778883266e-04
	9.436094652429493e-05
	3.342549726196774e-05
	-9.214967761977990e-06
	9.024889814467713e+00
	4.971091847276062e+00
	2.952434423570153e+00
	1.936019487143304e+00
	8.056878653861450e-01
	1.108618906546444e+01
	1.112245983077564e+01
	1.350548644712356e+01
	5.000000000000000e-05
	0.000000000000000e+00
 37	3.700000000000002e-11
	-1.000000000000000e-04
	1.007209901407709e-05
	4.632181721901647e-06
	5.665216249877412e-06
	3.304355533316440e-05
	3.444769120883147e-05
	2.170089471885073e-05
	1.030300977167684e-05
	9.934773672814714e-06
	5.556720936219538e-06
	-1.007209901407709e-05
	-9.388183078663158e-05
	8.737294633008372e-05
	-1.309301215261948e-04
	1.493369388831025e-04
	3.489058851251963e-04
	3.319351355255896e-04
	1.232776237610225e-04
	2.616404999474463e-05
	1.960963552840922e-05
	1.010296481479150e+01
	5.916143974726526e+00
	3.278586708373456e+00
	2.026344409580713e+00
	8.188580441663138e-01
	1.129937919847617e+01
	1.073637731685067e+01
	1.411912500561625e+01
	5.000000000000000e-05
	0.000000000000000e+00
 38	3.800000000000002e-11
	-1.000000000000000e-04
	7.743492872266075e-06
	9.898492075367801e-06
	3.313980363003858e-07
	2.700021523566073e-05
	3.431376026278362e-05
	2.668676223004261e-05
	1.323904404927497e-05
	9.724710688611319e-06
	5.550490823820332e-06
	-7.743492872266075e-06
	-5.050528283837707e-05
	9.531241928055180e-05
	-1.018456362964519e-04
	4.892866196390587e-05
	3.255615894177680e-04
	3.500191938311478e-04
	1.624252071667404e-04
	2.719672190924418e-05
	4.745092510912719e-05
	1.112870793609502e+01
	6.958165251586056e+00
	3.714618635319476e+00
	2.105526600906674e+00
	9.235715860451257e-01
	1.158240126412736e+01
	1.037932461509657e+01
	1.441035207153485e+01
	5.000000000000000e-05
	0.000000000000000e+00
 39	3.900000000000003e-11
	-1.000000000000000e-04
	5.534940416711885e-06
	1.399705495075114e-05
	-1.670164199183080e-06
	1.949069915961274e-05
	3.320715995501577e-05
	3.080127324637039e-05
	1.701692892686512e-05
	9.056701219876513e-06
	5.424206757499680e-06
	-5.534940416711885e-06
	-4.145035474911087e-06
	7.955134429861536e-05
	-4.865973529124193e-05
	-3.628548887837711e-05
	2.826444755597223e-04
	3.463586115920021e-04
	2.059901484711088e-04
	4.083141527728094e-05
	7.198990472085748e-05
	1.205498324665484e+01
	8.018938319981007e+00
	4.275308247746221e+00
	2.207046771730738e+00
	1.106282567251936e+00
	1.185083183589584e+01
	1.014961009037824e+01
	1.442391023610667e+01
	5.000000000000000e-05
	0.000000000000000e+00
 40	4.000000000000003e-11
	-1.000000000000000e-04
	3.913089739114646e-06
	1.610442646447179e-05
	-5.109552192756617e-07
	1.152029959471522e-05
	3.108148542247257e-05
	3.360351620260565e-05
	2.132619143679739e-05
	8.345914065782101e-06
	5.204723764578384e-06
	-3.913089739114646e-06
	3.598294149975078e-05
	4.733602344338480e-05
	1.282076318436377e-05
	-9.459973718845743e-05
	2.180646987399394e-04
	3.275721624196269e-04
	2.472467011767080e-04
	6.941530161808810e-05
	9.261646306418497e-05
	1.282381404496198e+01