Title: CKT3
Date: Wed Nov 14 11:45:31 2018
Plotname: Transient analysis
Flags: real
No. Variables: 6
No. Points: 1001    
Command: version 4.3.8
Variables:
 0 time S
 1 LT0#branch A
 2 v(7) V
 3 v(12)/2/pi V
 4 v(13) V
 5 v(14)/2/pi V
Values:
 0	0.000000000000000e+000
	-1.000000000000000e-006
	0.000000000000000e+000
	1.984036749146037e-001
	0.000000000000000e+000
	-1.801996252537874e-002
 1	1.000000000000000e-012
	-6.000000000000000e-007
	0.000000000000000e+000
	1.984980639343045e-001
	6.702274891559649e-013
	-1.802314066951294e-002
 2	2.000000000000000e-012
	-2.000000000000000e-007
	0.000000000000000e+000
	1.989290597964665e-001
	9.421608872250221e-012
	-1.806735333023462e-002
 3	3.000000000000000e-012
	2.000000000000001e-007
	0.000000000000000e+000
	1.997069436756098e-001
	9.446352910507013e-011
	-1.822067842062711e-002
 4	4.000000000000000e-012
	6.000000000000000e-007
	0.000000000000000e+000
	2.007379406276515e-001
	5.712145814771463e-010
	-1.855739208520381e-002
 5	5.000000000000000e-012
	1.000000000000000e-006
	0.000000000000000e+000
	2.018726779727150e-001
	2.042401215310391e-009
	-1.908557142603146e-002
 6	6.000000000000000e-012
	1.000000000000000e-006
	0.000000000000000e+000
	2.029090726525755e-001
	7.650614720204517e-009
	-1.979934444531739e-002
 7	6.999999999999999e-012
	1.000000000000000e-006
	0.000000000000000e+000
	2.036416768231173e-001
	2.191830962771330e-008
	-2.049623968244943e-002
 8	8.000000000000000e-012
	1.000000000000000e-006
	0.000000000000000e+000
	2.040525777765385e-001
	5.078944266075125e-008
	-2.104688494921089e-002
 9	9.000000000000000e-012
	1.000000000000000e-006
	0.000000000000000e+000
	2.041943959532681e-001
	1.017758673673961e-007
	-2.135246827561091e-002
 10	9.999999999999999e-012
	1.000000000000000e-006
	0.000000000000000e+000
	2.041571638273456e-001
	1.797862711433824e-007
	-2.140231646444906e-002
 11	1.100000000000000e-011
	1.000000000000000e-006
	0.000000000000000e+000
	2.039941664393107e-001
	2.835561986093537e-007
	-2.126953094524773e-002
 12	1.200000000000000e-011
	1.000000000000000e-006
	0.000000000000000e+000
	2.037356629766699e-001
	4.024846517398547e-007
	-2.105752477279444e-002
 13	1.300000000000000e-011
	1.000000000000000e-006
	0.000000000000000e+000
	2.034314554115999e-001
	5.161055211621902e-007
	-2.084312632276039e-002
 14	1.400000000000000e-011
	1.000000000000000e-006
	0.000000000000000e+000
	2.031619836158984e-001
	5.974678603563601e-007
	-2.065514114034902e-002
 15	1.500000000000000e-011
	1.000000000000000e-006
	0.000000000000000e+000
	2.030038209638308e-001
	6.201466604921350e-007
	-2.049300710182644e-002
 16	1.600000000000000e-011
	1.000000000000000e-006
	0.000000000000000e+000
	2.029849764610386e-001
	5.668344853744179e-007
	-2.035832045592099e-002
 17	1.700000000000000e-011
	1.000000000000000e-006
	0.000000000000000e+000
	2.030728964964144e-001
	4.363833717628050e-007
	-2.026864006237239e-002
 18	1.800000000000000e-011
	1.000000000000000e-006
	0.000000000000000e+000
	2.032044468748615e-001
	2.464021428347410e-007
	-2.024552033893797e-002
 19	1.900000000000000e-011
	1.000000000000000e-006
	0.000000000000000e+000
	2.033297108874421e-001
	3.004188272943623e-008
	-2.029324529935878e-002
 20	2.000000000000000e-011
	1.000000000000000e-006
	0.000000000000000e+000
	2.034340781331897e-001
	-1.722400624768307e-007
	-2.039017621175981e-002
 21	2.100000000000000e-011
	1.000000000000000e-006
	0.000000000000000e+000
	2.035272504154110e-001
	-3.232957112377518e-007
	-2.050010469946349e-002
 22	2.200000000000000e-011
	1.000000000000000e-006
	0.000000000000000e+000
	2.036171240575311e-001
	-3.988382582681016e-007
	-2.059270828424366e-002
 23	2.300000000000000e-011
	1.000000000000000e-006
	0.000000000000000e+000
	2.036949510876357e-001
	-3.929778354499651e-007
	-2.065637034550870e-002
 24	2.400000000000000e-011
	1.000000000000000e-006
	0.000000000000000e+000
	2.037424760672527e-001
	-3.182834209814111e-007
	-2.069577096789292e-002
 25	2.500000000000000e-011
	1.000000000000000e-006
	0.000000000000000e+000
	2.037500245350454e-001
	-2.007823803065061e-007
	-2.072016266023952e-002
 26	2.600000000000000e-011
	1.000000000000000e-006
	0.000000000000000e+000
	2.037266687590562e-001
	-7.186802945578171e-008
	-2.073397726875615e-002
 27	2.700000000000000e-011
	1.000000000000000e-006
	0.000000000000000e+000
	2.036937845976623e-001
	4.016214749326484e-008
	-2.073628941125585e-002
 28	2.800000000000000e-011
	1.000000000000000e-006
	0.000000000000000e+000
	2.036693537426775e-001
	1.164349369309149e-007
	-2.072641129887049e-002
 29	2.900000000000000e-011
	1.000000000000000e-006
	0.000000000000000e+000
	2.036572902718061e-001
	1.502021317037124e-007
	-2.070828388346934e-002
 30	3.000000000000000e-011
	1.000000000000000e-006
	0.000000000000000e+000
	2.036495380845334e-001
	1.457783845464034e-007
	-2.068926101612607e-002
 31	3.100000000000000e-011
	1.000000000000000e-006
	0.000000000000000e+000
	2.036367252403057e-001
	1.147762141585516e-007
	-2.067512601913839e-002
 32	3.200000000000001e-011
	1.000000000000000e-006
	0.000000000000000e+000
	2.036169580323181e-001
	7.133422534918482e-008
	-2.066650450583735e-002
 33	3.300000000000001e-011
	1.000000000000000e-006
	0.000000000000000e+000
	2.035960552400501e-001
	2.797633480046229e-008
	-2.065983928673638e-002
 34	3.400000000000001e-011
	1.000000000000000e-006
	0.000000000000000e+000
	2.035810810727140e-001
	-6.863408533874093e-009
	-2.065153699470540e-002
 35	3.500000000000002e-011
	1.000000000000000e-006
	0.000000000000000e+000
	2.035742312346923e-001
	-2.942944809141718e-008
	-2.064129443574060e-002
 36	3.600000000000002e-011
	1.000000000000000e-006
	0.000000000000000e+000
	2.035722463386508e-001
	-3.979901336360538e-008
	-2.063193915115627e-002
 37	3.700000000000002e-011
	1.000000000000000e-006
	0.000000000000000e+000
	2.035706332777633e-001
	-4.037084234350288e-008
	-2.062654573825945e-002
 38	3.800000000000002e-011
	1.000000000000000e-006
	0.000000000000000e+000
	2.035679449454356e-001
	-3.439853146043924e-008
	-2.062577627658158e-002
 39	3.900000000000003e-011
	1.000000000000000e-006
	0.000000000000000e+000
	2.035662954520115e-001
	-2.498414311757607e-008
	-2.062766806470738e-002
 40	4.000000000000003e-011
	1.000000000000000e-006
	0.000000000000000e+000
	2.035683743430980e-001
	-1.461112588010802e-008
	-2.062960017058799e-002
 41	4.100000000000003e-011
	1.000000000000000e-006
	0.000000000000000e+000
	2.035742935195156e-001
	-5.065663879793246e-009
	-2.063037122654580e-002
 42	4.200000000000004e-011
	1.000000000000000e-006
	0.000000000000000e+000
	2.035811711184699e-001
	2.474537528243879e-009
	-2.063062595193143e-002
 43	4.300000000000004e-011
	1.000000000000000e-006
	0.000000000000000e+000
	2.035854562434973e-001
	7.348561312828494e-009
	-2.063162016407212e-002
 44	4.400000000000004e-011
	1.000000000000000e-006
	0.000000000000000e+000
	2.035856046196478e-001
	9.374412956827092e-009
	-2.063373842640417e-002
 45	4.500000000000005e-011
	1.000000000000000e-006
	0.000000000000000e+000
	2.035828086007487e-001
	8.832757469299035e-009
	-2.063611563084597e-002
 46	4.600000000000005e-011
	1.000000000000000e-006
	0.000000000000000e+000
	2.035795276420495e-001
	6.407237438562433e-009
	-2.063749921454896e-002
 47	4.700000000000005e-011
	1.000000000000000e-006
	0.000000000000000e+000
	2.035774426222624e-001
	3.039569736129916e-009
	-2.063738263455936e-002
 48	4.800000000000005e-011
	1.000000000000000e-006
	0.000000000000000e+000
	2.035765983398718e-001
	-2.892654314795780e-010
	-2.063637262320056e-002
 49	4.900000000000006e-011
	1.000000000000000e-006
	0.000000000000000e+000
	2.035761226295045e-001
	-2.791879572518923e-009
	-2.063558761916196e-002
 50	5.000000000000006e-011
	1.000000000000000e-006
	0.000000000000000e+000
	2.035754942107942e-001
	-4.043881862293739e-009
	-2.063574104343801e-002
 51	5.100000000000006e-011
	1.000000000000000e-006
	0.000000000000000e+000
	2.035750954424190e-001
	-4.033458102000465e-009
	-2.063670860355408e-002
 52	5.200000000000007e-011
	1.000000000000000e-006
	0.000000000000000e+000
	2.035756953151389e-001
	-3.082446992808285e-009
	-2.063782672319097e-002
 53	5.300000000000007e-011
	1.000000000000000e-006
	0.000000000000000e+000
	2.035775454653538e-001
	-1.680111045442679e-009
	-2.063852191903245e-002
 54	5.400000000000007e-011
	1.000000000000000e-006
	0.000000000000000e+000
	2.035800073513971e-001
	-2.993136985234035e-010
	-2.063869165616486e-002
 55	5.500000000000008e-011
	1.000000000000000e-006
	0.000000000000000e+000
	2.035820062037374e-001
	7.389221773972768e-010
	-2.063859866939327e-002
 56	5.600000000000008e-011
	1.000000000000000e-006
	0.000000000000000e+000
	2.035828277280708e-001
	1.316604742112278e-009
	-2.063850341592710e-002
 57	5.700000000000008e-011
	1.000000000000000e-006
	0.000000000000000e+000
	2.035825448912915e-001
	1.488827229210514e-009
	-2.063842434890423e-002
 58	5.800000000000008e-011
	1.000000000000000e-006
	0.000000000000000e+000
	2.035817858620864e-001
	1.405133131304455e-009
	-2.063820714289097e-002
 59	5.900000000000008e-011
	1.000000000000000e-006
	0.000000000000000e+000
	2.035811502991541e-001
	1.224062568801067e-009
	-2.063776364945650e-002
 60	6.000000000000008e-011
	1.000000000000000e-006
	0.000000000000000e+000
	2.035808098562532e-001
	1.053392779576004e-009
	-2.063721365196393e-002
 61	6.100000000000007e-011
	1.000000000000000e-006
	0.000000000000000e+000
	2.035805651305453e-001
	9.295129419368740e-010
	-2.063680160275475e-002
 62	6.200000000000007e-011
	1.000000000000000e-006
	0.000000000000000e+000
	2.035801938664775e-001
	8.310775717588219e-010
	-2.063669121916277e-002
 63	6.300000000000007e-011
	1.000000000000000e-006
	0.000000000000000e+000
	2.035797187396760e-001
	7.112991160555257e-010
	-2.063684004717460e-002
 64	6.400000000000006e-011
	1.000000000000000e-006
	0.000000000000000e+000
	2.035793758254509e-001
	5.313837694722197e-010
	-2.063705773821333e-002
 65	6.500000000000006e-011
	1.000000000000000e-006
	0.000000000000000e+000
	2.035793731870739e-001
	2.822908009970195e-010
	-2.063717582052366e-002
 66	6.600000000000006e-011
	1.000000000000000e-006
	0.000000000000000e+000
	2.035796967561912e-001
	-1.048355274268218e-011
	-2.063717068791378e-002
 67	6.700000000000005e-011
	1.000000000000000e-006
	0.000000000000000e+000
	2.035801313462008e-001
	-2.972168691813912e-010
	-2.063714569988376e-002
 68	6.800000000000005e-011
	1.000000000000000e-006
	0.000000000000000e+000
	2.035804460923956e-001
	-5.226808523383793e-010
	-2.063721232842353e-002
 69	6.900000000000005e-011
	1.000000000000000e-006
	0.000000000000000e+000
	2.035805600804209e-001
	-6.450375856069189e-010
	-2.063738757637882e-002
 70	7.000000000000004e-011
	1.000000000000000e-006
	0.000000000000000e+000
	2.035805545805463e-001
	-6.482165909821167e-010
	-2.063758978828096e-002
 71	7.100000000000004e-011
	1.000000000000000e-006
	0.000000000000000e+000
	2.035805541341370e-001
	-5.446190181213321e-010
	-2.063771761754335e-002
 72	7.200000000000004e-011
	1.000000000000000e-006
	0.000000000000000e+000
	2.035806052242097e-001
	-3.689154655571984e-010
	-2.063773094745523e-002
 73	7.300000000000003e-011
	1.000000000000000e-006
	0.000000000000000e+000
	2.035806562932368e-001
	-1.664925218239115e-010
	-2.063766731154011e-002
 74	7.400000000000003e-011
	1.000000000000000e-006
	0.000000000000000e+000
	2.035806336238271e-001
	1.900562411487526e-011
	-2.063759443412508e-002
 75	7.500000000000003e-011
	1.000000000000000e-006
	0.000000000000000e+000
	2.035805248909317e-001
	1.554098842366322e-010
	-2.063755200933013e-002
 76	7.600000000000002e-011
	1.000000000000000e-006
	0.000000000000000e+000
	2.035803925332410e-001
	2.271015382600893e-010
	-2.063753267286213e-002
 77	7.700000000000002e-011
	1.000000000000000e-006
	0.000000000000000e+000
	2.035803156786351e-001
	2.352060848323678e-010
	-2.063750772265130e-002
 78	7.800000000000002e-011
	1.000000000000000e-006
	0.000000000000000e+000
	2.035803230620592e-001
	1.938983772607710e-010
	-2.063746394180072e-002
 79	7.900000000000001e-011
	1.000000000000000e-006
	0.000000000000000e+000
	2.035803771080463e-001
	1.244561920850731e-010
	-2.063741619576513e-002
 80	8.000000000000001e-011
	1.000000000000000e-006
	0.000000000000000e+000
	2.035804150827730e-001
	4.888248943065097e-011
	-2.063738976045830e-002
 81	8.100000000000001e-011
	1.000000000000000e-006
	0.000000000000000e+000
	2.035804033258001e-001
	-1.527707346468001e-011
	-2.063739470752415e-002
 82	8.200000000000000e-011
	1.000000000000000e-006
	0.000000000000000e+000
	2.035803572397229e-001
	-5.783515609929658e-011
	-2.063741754002648e-002
 83	8.300000000000000e-011
	1.000000000000000e-006
	0.000000000000000e+000
	2.035803172596482e-001
	-7.629079385521581e-011
	-2.063743517158047e-002
 84	8.399999999999999e-011
	1.000000000000000e-006
	3.827052483451202e-290
	2.035803097616192e-001
	-7.410706954431219e-011
	-2.063743538298295e-002
 85	8.499999999999999e-011
	1.000000000000000e-006
	3.537562015272117e-254
	2.035803286027073e-001
	-5.799048989493167e-011
	-2.063742471075172e-002
 86	8.599999999999999e-011
	1.000000000000000e-006
	1.263229898949618e-220
	2.035803482139538e-001
	-3.527639160946227e-011
	-2.063741890557287e-002
 87	8.699999999999998e-011
	1.000000000000000e-006
	1.742606819327136e-189
	2.035803501821257e-001
	-1.214756594152240e-011
	-2.063742711926563e-002
 88	8.799999999999998e-011
	1.000000000000000e-006
	9.286564703588054e-161
	2.035803375935933e-001
	7.137457524146460e-012
	-2.063744452750040e-002
 89	8.899999999999998e-011
	1.000000000000000e-006
	1.911830667165839e-134
	2.035803273337529e-001
	2.025963055385149e-011
	-2.063745829447454e-002
 90	8.999999999999997e-011
	1.000000000000000e-006
	1.520485915038573e-110
	2.035803316457958e-001
	2.649964543368638e-011
	-2.063745948450288e-002
 91	9.099999999999997e-011
	1.000000000000000e-006
	4.671474795933776e-089
	2.035803473462997e-001
	2.634559948339183e-011
	-2.063744976349309e-002
 92	9.199999999999997e-011
	1.000000000000000e-006
	5.544523613121507e-070
	2.035803608200481e-001
	2.115776018043571e-011
	-2.063743818140475e-002
 93	9.299999999999996e-011
	1.000000000000000e-006
	2.542219650039524e-053
	2.035803615605235e-001
	1.286118061346781e-011
	-2.063743258496731e-002
 94	9.399999999999996e-011
	1.000000000000000e-006
	4.502984990123339e-039
	2.035803508751857e-001
	3.608581215799521e-012
	-2.063743385488319e-002
 95	9.499999999999996e-011
	1.000000000000000e-006
	3.081246967109890e-027
	2.035803390086519e-001
	-4.594147691918217e-012
	-2.063743716027152e-002
 96	9.599999999999995e-011
	1.000000000000000e-006
	8.144999996309610e-018
	2.035803351880685e-001
	-1.024485042758374e-011
	-2.063743765923356e-002
 97	9.699999999999995e-011
	1.000000000000000e-006
	8.317528266537419e-011
	2.035803403631344e-001
	-1.259987947214102e-011
	-2.063743484613882e-002
 98	9.799999999999995e-011
	1.000000000000000e-006
	3.281345025694159e-006
	2.035803482789787e-001
	-1.175536247929459e-011
	-2.063743210565122e-002
 99	9.899999999999994e-011
	1.000000000000000e-006
	5.048400528991425e-004
	2.035803523375443e-001
	-8.527080327794102e-012
	-2.063743284213667e-002
 100	9.999999999999994e-011
	1.000000000000000e-006
	1.026948089260082e-003
	2.035803515076720e-001
	-4.158001117037502e-012
	-2.063743696479764e-002
 101	1.009999999999999e-010
	1.000000000000000e-006
	4.337359073885302e-004
	2.035803531301316e-001
	6.350121483580452e-014
	-2.063743777654838e-002
 102	1.019999999999999e-010
	1.000000000000000e-006
	6.996251171639472e-007
	2.035803746215576e-001
	3.262109758735600e-012
	-2.063741772255220e-002
 103	1.029999999999999e-010
	1.000000000000000e-006
	5.167333676710120e-013
	2.035804769534438e-001
	4.817850362755431e-012
	-2.063730968041002e-002
 104	1.039999999999999e-010
	1.000000000000000e-006
	3.725107893840621e-021
	2.035809998643060e-001
	4.723490106247571e-012
	-2.063673203347622e-002
 105	1.049999999999999e-010
	1.000000000000000e-006
	2.332013907285737e-031
	2.035835822151342e-001
	3.775245121176235e-012
	-2.063382132107651e-002
 106	1.059999999999999e-010
	1.000000000000000e-006
	6.460257910143863e-041
	2.035932028743425e-001
	2.984218311562969e-012
	-2.062280416092185e-002
 107	1.069999999999999e-010
	1.000000000000000e-006
	3.128058666129048e-060
	2.036254010412602e-001
	4.605293115221586e-012
	-2.058516256900788e-002
 108	1.079999999999999e-010
	1.000000000000000e-006
	2.176408492434837e-072
	2.037238013070089e-001
	1.772247630241835e-011
	-2.046699888377278e-002
 109	1.089999999999999e-010
	1.000000000000000e-006
	9.942370208603565e-088
	2.039784823800513e-001
	8.106102115382353e-011
	-2.015046276592478e-002
 110	1.099999999999999e-010
	1.000000000000000e-006
	4.674739632063903e-109
	2.045254910935190e-001
	3.100834320880676e-010
	-1.944593415885020e-002
 111	1.109999999999999e-010
	1.000000000000000e-006
	1.553438065955101e-132
	2.055915356073951e-001
	1.048875909608091e-009
	-1.801739589077577e-002
 112	1.119999999999999e-010
	1.000000000000000e-006
	1.178042000842827e-158
	2.074583001292837e-001
	3.153685509178965e-009
	-1.540563609984495e-002
 113	1.129999999999999e-010
	1.000000000000000e-006
	3.451158748316340e-187
	2.104435122590640e-001
	8.554770536668055e-009
	-1.103058474948835e-002
 114	1.139999999999999e-010
	1.000000000000000e-006
	3.905768077804196e-218
	2.148463309575451e-001
	2.115895151470128e-008
	-4.254449858246752e-003
 115	1.149999999999999e-010
	1.000000000000000e-006
	1.707596837023882e-251
	2.208962976905355e-001
	4.812238944777106e-008
	5.533014240591888e-003
 116	1.159999999999999e-010
	1.000000000000000e-006
	2.884042321987725e-287
	2.287226391474699e-001
	1.013383220584277e-007
	1.882404358739141e-002
 117	1.169999999999999e-010
	1.000000000000000e-006
	0.000000000000000e+000
	2.383591322276112e-001
	1.987439607481525e-007
	3.592782220028282e-002
 118	1.179999999999999e-010
	1.000000000000000e-006
	0.000000000000000e+000
	2.497822801761332e-001
	3.648140642598704e-007
	5.695405744281198e-002
 119	1.189999999999999e-010
	1.000000000000000e-006
	0.000000000000000e+000
	2.629634022695209e-001
	6.295253868965537e-007
	8.185155652639894e-002
 120	1.199999999999999e-010
	1.000000000000000e-006
	0.000000000000000e+000
	2.779073199398416e-001
	1.025297935293880e-006
	1.104881898346803e-001
 121	1.209999999999999e-010
	1.000000000000000e-006
	0.000000000000000e+000
	2.946546077531922e-001
	1.582009632862363e-006
	1.427429865515801e-001
 122	1.219999999999999e-010
	1.000000000000000e-006
	0.000000000000000e+000
	3.132358941841492e-001
	2.321025454292667e-006
	1.785741734648743e-001
 123	1.229999999999999e-010
	1.000000000000000e-006
	0.000000000000000e+000
	3.335786349338956e-001
	3.249965741128549e-006
	2.180297860414793e-001
 124	1.239999999999999e-010
	1.000000000000000e-006
	0.000000000000000e+000
	3.553790220385992e-001
	4.360242813997359e-006
	2.611809536021983e-001
 125	1.249999999999999e-010
	1.000000000000000e-006
	0.000000000000000e+000
	3.779718683745097e-001
	5.628892883126673e-006
	3.079842664386446e-001
 126	1.259999999999999e-010
	1.000000000000000e-006
	0.000000000000000e+000
	4.002617490444915e-001
	7.024890954409188e-006
	3.581161652431147e-001
 127	1.269999999999999e-010
	1.000000000000000e-006
	0.000000000000000e+000
	4.207981229782035e-001
	8.518323357482167e-006
	4.108520900081311e-001
 128	1.279999999999998e-010
	1.000000000000000e-006
	0.000000000000000e+000
	4.380446495210369e-001
	1.008917822525690e-005
	4.650590605228516e-001
 129	1.289999999999998e-010
	1.000000000000000e-006
	0.000000000000000e+000
	4.507910141758798e-001
	1.173183444493160e-005
	5.193212120711225e-001
 130	1.299999999999998e-010
	1.000000000000000e-006
	0.000000000000000e+000
	4.585368127824069e-001
	1.345208187529066e-005
	5.721500266931664e-001
 131	1.309999999999998e-010
	1.000000000000000e-006
	0.000000000000000e+000
	4.616436836550040e-001
	1.525571646381322e-005
	6.221923422125513e-001
 132	1.319999999999998e-010
	1.000000000000000e-006
	0.000000000000000e+000
	4.611607715717743e-001
	1.713089379142587e-005
	6.683660502530606e-001
 133	1.329999999999998e-010
	1.000000000000000e-006
	0.000000000000000e+000
	4.584171985355068e-001
	1.902949827742541e-005
	7.099079603211915e-001
 134	1.339999999999998e-010
	1.000000000000000e-006
	0.000000000000000e+000
	4.546033187735423e-001
	2.085459806906951e-005
	7.463663853580077e-001
 135	1.349999999999998e-010
	1.000000000000000e-006
	0.000000000000000e+000
	4.505366784357994e-001
	2.246062887252041e-005
	7.775793185247227e-001
 136	1.359999999999998e-010
	1.000000000000000e-006
	0.000000000000000e+000
	4.466618941329490e-001
	2.366997953420234e-005
	8.036512547137282e-001
 137	1.369999999999998e-010
	1.000000000000000e-006
	0.000000000000000e+000
	4.431874315207096e-001
	2.430479583307812e-005
	8.249124083414023e-001
 138	1.379999999999998e-010
	1.000000000000000e-006
	0.000000000000000e+000
	4.402178207319965e-001
	2.422758718409050e-005
	8.418449179136243e-001
 139	1.389999999999998e-010
	1.000000000000000e-006
	0.000000000000000e+000
	4.378033020639973e-001
	2.338043114670776e-005
	8.549895811900942e-001
 140	1.399999999999998e-010
	1.000000000000000e-006
	0.000000000000000e+000
	4.359250492278181e-001
	2.181162014047985e-005
	8.648717925983499e-001
 141	1.409999999999998e-010
	1.000000000000000e-006
	0.000000000000000e+000
	4.344817263641875e-001
	1.968095245543715e-005
	8.719782621303277e-001
 142	1.419999999999998e-010
	1.000000000000000e-006
	0.000000000000000e+000
	4.333194427653259e-001
	1.724000205460757e-005
	8.767800705961977e-001
 143	1.429999999999998e-010
	1.000000000000000e-006
	0.000000000000000e+000
	4.322921155529747e-001
	1.479030890109175e-005
	8.797636183400800e-001
 144	1.439999999999998e-010
	1.000000000000000e-006
	0.000000000000000e+000
	4.313083953080416e-001
	1.262874721418191e-005
	8.814282042303780e-001
 145	1.449999999999998e-010
	1.000000000000000e-006
	0.000000000000000e+000
	4.303364621331778e-001
	1.099344792583024e-005
	8.822389888580672e-001
 146	1.459999999999998e-010
	1.000000000000000e-006
	0.000000000000000e+000
	4.293765192961281e-001
	1.002403778510344e-005
	8.825614819052015e-001
 147	1.469999999999998e-010
	1.000000000000000e-006
	0.000000000000000e+000
	4.284343266176262e-001
	9.746116594120649e-006
	8.826190708253098e-001
 148	1.479999999999998e-010
	1.000000000000000e-006
	0.000000000000000e+000
	4.275195791171629e-001
	1.008283995770451e-005
	8.824990476950106e-001
 149	1.489999999999998e-010
	1.000000000000000e-006
	0.000000000000000e+000
	4.266643091991734e-001
	1.088855646668214e-005
	8.822004654024361e-001
 150	1.499999999999998e-010
	1.000000000000000e-006
	0.000000000000000e+000
	4.259369856796337e-001
	1.199346215905413e-005
	8.816938740993877e-001
 151	1.509999999999998e-010
	1.000000000000000e-006
	0.000000000000000e+000
	4.254334010277708e-001
	1.324623246117915e-005
	8.809628788817937e-001
 152	1.519999999999998e-010
	1.000000000000000e-006
	0.000000000000000e+000
	4.252476920414978e-001
	1.454400057510620e-005
	8.800157099748598e-001
 153	1.529999999999998e-010
	1.000000000000000e-006
	0.000000000000000e+000
	4.254446074812450e-001
	1.584456854439146e-005
	8.788750841674479e-001
 154	1.539999999999998e-010
	1.000000000000000e-006
	0.000000000000000e+000
	4.260528703272900e-001
	1.716201544083047e-005
	8.775629113868516e-001
 155	1.549999999999998e-010
	1.000000000000000e-006
	0.000000000000000e+000
	4.270824854381209e-001
	1.855159587245683e-005
	8.760912459048950e-001
 156	1.559999999999998e-010
	1.000000000000000e-006
	0.000000000000000e+000
	4.285517611411226e-001
	2.009164479254308e-005
	8.744606551796417e-001
 157	1.569999999999997e-010
	1.000000000000000e-006
	0.000000000000000e+000
	4.305059233985125e-001
	2.186907981031071e-005
	8.726611393871762e-001
 158	1.579999999999997e-010
	1.000000000000000e-006
	0.000000000000000e+000
	4.330191620462797e-001
	2.397205035507502e-005
	8.706717177844592e-001
 159	1.589999999999997e-010
	1.000000000000000e-006
	0.000000000000000e+000
	4.361855593969538e-001
	2.648980974625020e-005
	8.684589797224994e-001
 160	1.599999999999997e-010
	1.000000000000000e-006
	0.000000000000000e+000
	4.401106730880434e-001
	2.951725508874180e-005
	8.659770123545956e-001
 161	1.609999999999997e-010
	1.000000000000000e-006
	0.000000000000000e+000
	4.449116184918883e-001
	3.316039665707272e-005
	8.631694532778740e-001
 162	1.619999999999997e-010
	1.000000000000000e-006
	0.000000000000000e+000
	4.507249330338441e-001
	3.753910118450944e-005
	8.599714493806475e-001
 163	1.629999999999997e-010
	1.000000000000000e-006
	0.000000000000000e+000
	4.577161415559756e-001
	4.278403096119728e-005
	8.563084439343278e-001
 164	1.639999999999997e-010
	1.000000000000000e-006
	0.000000000000000e+000
	4.660861097368512e-001
	4.902481249984307e-005
	8.520908741524068e-001
 165	1.649999999999997e-010
	1.000000000000000e-006
	0.000000000000000e+000
	4.760741819760647e-001
	5.636545209263470e-005
	8.472069192396853e-001
 166	1.659999999999997e-010
	1.000000000000000e-006
	0.000000000000000e+000
	4.879615163895845e-001
	6.484108517156794e-005
	8.415165674124256e-001
 167	1.669999999999997e-010
	1.000000000000000e-006
	0.000000000000000e+000
	5.020770661793138e-001
	7.434923368642433e-005
	8.348485987881769e-001
 168	1.679999999999997e-010
	1.000000000000000e-006
	0.000000000000000e+000
	5.188045041578019e-001
	8.455360856294507e-005
	8.269993024109251e-001
 169	1.689999999999997e-010
	1.000000000000000e-006
	0.000000000000000e+000
	5.385842478791733e-001
	9.477673427911259e-005
	8.177304473468761e-001
 170	1.699999999999997e-010
	1.000000000000000e-006
	0.000000000000000e+000
	5.619026067185980e-001
	1.039340956164287e-004
	8.067654986755476e-001
 171	1.709999999999997e-010
	1.000000000000000e-006
	0.000000000000000e+000
	5.892595129208645e-001
	1.106024309954863e-004
	7.937864771400019e-001
 172	1.719999999999997e-010
	1.000000000000000e-006
	0.000000000000000e+000
	6.211063184372879e-001
	1.133071200502061e-004
	7.784371925591725e-001
 173	1.729999999999997e-010
	1.000000000000000e-006
	0.000000000000000e+000
	6.577473819006959e-001
	1.109998585936620e-004
	7.603401344831240e-001
 174	1.739999999999997e-010
	1.000000000000000e-006
	0.000000000000000e+000
	6.992092332430535e-001
	1.035136110673623e-004
	7.391332385352311e-001
 175	1.749999999999997e-010
	1.000000000000000e-006
	0.000000000000000e+000
	7.451044677569023e-001
	9.170567149180254e-005
	7.145284072690821e-001
 176	1.759999999999997e-010
	1.000000000000000e-006
	0.000000000000000e+000
	7.945488680474204e-001
	7.717277311502701e-005
	6.863851046559421e-001
 177	1.769999999999997e-010
	1.000000000000000e-006
	0.000000000000000e+000
	8.462036855761448e-001
	6.171538540300191e-005
	6.547799906442190e-001
 178	1.779999999999997e-010
	1.000000000000000e-006
	0.000000000000000e+000
	8.984753918326075e-001
	4.685894008723618e-005
	6.200427061364439e-001
 179	1.789999999999997e-010
	1.000000000000000e-006
	0.000000000000000e+000
	9.498115980244368e-001
	3.362121016691333e-005
	5.827294518343991e-001
 180	1.799999999999997e-010
	1.000000000000000e-006
	0.000000000000000e+000
	9.989518074928657e-001
	2.251735032684714e-005
	5.435289135485595e-001
 181	1.809999999999997e-010
	1.000000000000000e-006
	0.000000000000000e+000
	1.045013901513011e+000
	1.368950502725734e-005
	5.031334546858377e-001
 182	1.819999999999997e-010
	1.000000000000000e-006
	0.000000000000000e+000
	1.087421773714104e+000
	7.055316671138009e-006
	4.621374260620326e-001
 183	1.829999999999997e-010
	1.000000000000000e-006
	0.000000000000000e+000
	1.125790327574092e+000
	2.421362538566630e-006
	4.210165816719218e-001
 184	1.839999999999997e-010
	1.000000000000000e-006
	0.000000000000000e+000
	1.159874003091687e+000
	-4.495390033895014e-007
	3.801948327515343e-001
 185	1.849999999999997e-010
	1.000000000000000e-006
	0.000000000000000e+000
	1.189581675384363e+000
	-1.807631167162573e-006
	3.401473768605464e-001
 186	1.859999999999996e-010
	1.000000000000000e-006
	0.000000000000000e+000
	1.214985189739242e+000
	-1.907820997221204e-006
	3.014645366483927e-001
 187	1.869999999999996e-010
	1.000000000000000e-006
	0.000000000000000e+000
	1.236270540991095e+000
	-1.011383051003929e-006
	2.648269759642977e-001
 188	1.879999999999996e-010
	1.000000000000000e-006
	0.000000000000000e+000
	1.253655930385097e+000
	6.107995968984381e-007
	2.309002772183776e-001
 189	1.889999999999996e-010
	1.000000000000000e-006
	0.000000000000000e+000
	1.267342457686206e+000
	2.678890265939693e-006
	2.002037489142360e-001
 190	1.899999999999996e-010
	1.000000000000000e-006
	0.000000000000000e+000
	1.277534602418693e+000
	4.911576005971186e-006
	1.730150490559584e-001
 191	1.909999999999996e-010
	1.000000000000000e-006
	0.000000000000000e+000
	1.284504731136183e+000
	7.040888653225205e-006
	1.493416864446203e-001
 192	1.919999999999996e-010
	1.000000000000000e-006
	0.000000000000000e+000
	1.288639079482588e+000
	8.832319587707372e-006
	1.289514199577000e-001
 193	1.929999999999996e-010
	1.000000000000000e-006
	0.000000000000000e+000
	1.290420544948973e+000
	1.010584873810386e-005
	1.114338723973156e-001
 194	1.939999999999996e-010
	1.000000000000000e-006
	0.000000000000000e+000
	1.290355114674801e+000
	1.075232310085726e-005
	9.627065857347052e-002
 195	1.949999999999996e-010
	1.000000000000000e-006
	0.000000000000000e+000
	1.288888899473653e+000
	1.074033507920484e-005
	8.290546957710410e-002
 196	1.959999999999996e-010
	1.000000000000000e-006
	0.000000000000000e+000
	1.286362613062957e+000
	1.011133703337228e-005
	7.081175576020062e-002
 197	1.969999999999996e-010
	1.000000000000000e-006
	0.000000000000000e+000
	1.283017046274120e+000
	8.964216471367760e-006
	5.955107943606591e-002
 198	1.979999999999996e-010
	1.000000000000000e-006
	0.000000000000000e+000
	1.279027871604985e+000
	7.433501339104641e-006
	4.881002178811342e-002
 199	1.989999999999996e-010
	1.000000000000000e-006
	0.000000000000000e+000
	1.274537431651324e+000
	5.666611590769075e-006
	3.840753740008795e-002
 200	1.999999999999996e-010
	1.000000000000000e-006
	0.000000000000000e+000
	1.269666879253001e+000