Title: CKT4
Date: Wed Oct 11 15:51:39 2017
Plotname: Transient analysis
Flags: real
No. Variables: 127
No. Points: 1001    
Command: version 4.3.1
Variables:
 0 time S
 1 L0.X0#branch A
 2 L0.X1#branch A
 3 LP0.X0#branch A
 4 LP0.X1#branch A
 5 LP0.X2#branch A
 6 LP0.X3#branch A
 7 LP1.X0#branch A
 8 LP1.X1#branch A
 9 LP1.X2#branch A
 10 LP1.X3#branch A
 11 LP2.X0#branch A
 12 LP2.X1#branch A
 13 LP3.X0#branch A
 14 LP3.X1#branch A
 15 LP4.X0#branch A
 16 LP4.X1#branch A
 17 LP5.X0#branch A
 18 LP5.X1#branch A
 19 LP6.X0#branch A
 20 LP6.X1#branch A
 21 LP7.X0#branch A
 22 LP7.X1#branch A
 23 LP8.X0#branch A
 24 LP8.X1#branch A
 25 LP9.X1#branch A
 26 LP10.X1#branch A
 27 LP11.X1#branch A
 28 LP12.X1#branch A
 29 LT0.X0#branch A
 30 LT0.X1#branch A
 31 LT0.X2#branch A
 32 LT0.X3#branch A
 33 LT1.X0#branch A
 34 LT1.X1#branch A
 35 LT1.X2#branch A
 36 LT1.X3#branch A
 37 LT2.X1#branch A
 38 LT2.X2#branch A
 39 LT2.X3#branch A
 40 LT3.X1#branch A
 41 LT3.X2#branch A
 42 LT3.X3#branch A
 43 LT4.X1#branch A
 44 LT5.X1#branch A
 45 LT6.X1#branch A
 46 LT7.X1#branch A
 47 LT8.X1#branch A
 48 LT9.X1#branch A
 49 LT10.X1#branch A
 50 LT11.X1#branch A
 51 V0#branch A
 52 V1#branch A
 53 v(4.X0) V
 54 v(4.X2) V
 55 v(4.X3) V
 56 v(5.X0) V
 57 v(5.X1) V
 58 v(5.X2) V
 59 v(5.X3) V
 60 v(6.X0) V
 61 v(6.X1) V
 62 v(6.X2) V
 63 v(6.X3) V
 64 v(7.X0) V
 65 v(7.X1) V
 66 v(7.X2) V
 67 v(7.X3) V
 68 v(8.X0) V
 69 v(8.X1) V
 70 v(8.X2) V
 71 v(8.X3) V
 72 v(9.X0) V
 73 v(9.X1) V
 74 v(9.X2) V
 75 v(9.X3) V
 76 v(10.X0) V
 77 v(10.X1) V
 78 v(10.X2) V
 79 v(10.X3) V
 80 v(11.X0) V
 81 v(11.X1) V
 82 v(12.X0) V
 83 v(12.X1) V
 84 v(13.X0) V
 85 v(13.X1) V
 86 v(14.X0) V
 87 v(14.X1) V
 88 v(15.X0) V
 89 v(15.X1) V
 90 v(16.X0) V
 91 v(16.X1) V
 92 v(17.X0) V
 93 v(17.X1) V
 94 v(18.X0) V
 95 v(18.X1) V
 96 v(19.X1) V
 97 v(20.X1) V
 98 v(21.X1) V
 99 v(22.X1) V
 100 v(23.X1) V
 101 v(24.X1) V
 102 v(25.X1) V
 103 v(26.X1) V
 104 v(27.X1) V
 105 v(28.X1) V
 106 v(29.X1) V
 107 v(30.X1) V
 108 v(31.X1) V
 109 v(32.X1) V
 110 v(33.X1) V
 111 v(34.X1) V
 112 v(35.X1) V
 113 v(36.X1) V
 114 v(37.X1) V
 115 v(38.X1) V
 116 v(39.X1) V
 117 v(40.X1) V
 118 v(41.X1) V
 119 v(DCIN) V
 120 v(DCOUT) V
 121 v(JTL1) V
 122 v(JTL2) V
 123 v(RGND) V
 124 v(SFQIN) V
 125 v(VCC) V
 126 v(VIN) V
Values:
 0	0.000000000000000e+00
	0.000000000000000e+00
	0.000000000000000e+00
	0.000000000000000e+00
	0.000000000000000e+00
	0.000000000000000e+00
	0.000000000000000e+00
	0.000000000000000e+00
	0.000000000000000e+00
	0.000000000000000e+00
	0.000000000000000e+00
	0.000000000000000e+00
	0.000000000000000e+00
	0.000000000000000e+00
	0.000000000000000e+00
	0.000000000000000e+00
	0.000000000000000e+00
	0.000000000000000e+00
	0.000000000000000e+00
	0.000000000000000e+00
	0.000000000000000e+00
	0.000000000000000e+00
	0.000000000000000e+00
	0.000000000000000e+00
	0.000000000000000e+00
	0.000000000000000e+00
	0.000000000000000e+00
	0.000000000000000e+00
	0.000000000000000e+00
	0.000000000000000e+00
	0.000000000000000e+00
	0.000000000000000e+00
	0.000000000000000e+00
	0.000000000000000e+00
	0.000000000000000e+00
	0.000000000000000e+00
	0.000000000000000e+00
	0.000000000000000e+00
	0.000000000000000e+00
	0.000000000000000e+00
	0.000000000000000e+00
	0.000000000000000e+00
	0.000000000000000e+00
	0.000000000000000e+00
	0.000000000000000e+00
	0.000000000000000e+00
	0.000000000000000e+00
	0.000000000000000e+00
	0.000000000000000e+00
	0.000000000000000e+00
	0.000000000000000e+00
	0.000000000000000e+00
	0.000000000000000e+00
	0.000000000000000e+00
	0.000000000000000e+00
	0.000000000000000e+00
	0.000000000000000e+00
	0.000000000000000e+00
	0.000000000000000e+00
	0.000000000000000e+00
	0.000000000000000e+00
	0.000000000000000e+00
	0.000000000000000e+00
	0.000000000000000e+00
	0.000000000000000e+00
	0.000000000000000e+00
	0.000000000000000e+00
	0.000000000000000e+00
	0.000000000000000e+00
	0.000000000000000e+00
	0.000000000000000e+00
	0.000000000000000e+00
	0.000000000000000e+00
	0.000000000000000e+00
	0.000000000000000e+00
	0.000000000000000e+00
	0.000000000000000e+00
	0.000000000000000e+00
	0.000000000000000e+00
	0.000000000000000e+00
	0.000000000000000e+00
	0.000000000000000e+00
	0.000000000000000e+00
	0.000000000000000e+00
	0.000000000000000e+00
	0.000000000000000e+00
	0.000000000000000e+00
	0.000000000000000e+00
	0.000000000000000e+00
	0.000000000000000e+00
	0.000000000000000e+00
	0.000000000000000e+00
	0.000000000000000e+00
	0.000000000000000e+00
	0.000000000000000e+00
	0.000000000000000e+00
	0.000000000000000e+00
	0.000000000000000e+00
	0.000000000000000e+00
	0.000000000000000e+00
	0.000000000000000e+00
	0.000000000000000e+00
	0.000000000000000e+00
	0.000000000000000e+00
	0.000000000000000e+00
	0.000000000000000e+00
	0.000000000000000e+00
	0.000000000000000e+00
	0.000000000000000e+00
	0.000000000000000e+00
	0.000000000000000e+00
	0.000000000000000e+00
	0.000000000000000e+00
	0.000000000000000e+00
	0.000000000000000e+00
	0.000000000000000e+00
	0.000000000000000e+00
	0.000000000000000e+00
	0.000000000000000e+00
	0.000000000000000e+00
	0.000000000000000e+00
	0.000000000000000e+00
	0.000000000000000e+00
	0.000000000000000e+00
	0.000000000000000e+00
	0.000000000000000e+00
	0.000000000000000e+00
 1	1.000000000000000e-12
	2.709485804829172e-06
	-3.702366801452115e-06
	3.522925576068667e-05
	6.713086198679543e-06
	1.645216961355585e-05
	1.640511455995360e-05
	-1.664296369167949e-06
	4.177214303990236e-05
	1.638491528373610e-05
	1.677199790043738e-05
	-1.883371531684746e-05
	3.121946616061632e-05
	1.639554044383921e-05
	-2.332894643570759e-05
	1.716941894767950e-05
	1.484902420664382e-06
	1.464883821987601e-06
	3.023946166330145e-06
	1.631204661687623e-05
	2.289798675956260e-05
	-1.244601982841572e-06
	4.508848586994527e-06
	1.592481696483793e-05
	1.699917268550143e-05
	2.208151482233103e-05
	-1.472795432996613e-05
	2.215037915646068e-05
	1.503200212583969e-05
	8.349382696297831e-08
	-1.590837331096899e-06
	8.349382696297831e-08
	-1.355477349032158e-09
	-1.994125471803485e-07
	3.806977623845023e-05
	-1.636867578659287e-05
	-1.640647003730263e-05
	8.733857303556295e-07
	1.638355980638707e-05
	1.634103822429241e-05
	-7.586471929035171e-06
	-1.355477349032158e-09
	-4.309596761449821e-07
	-7.174516007412691e-07
	-4.309596761449823e-07
	7.890519724908732e-06
	6.784206351219711e-07
	-2.202354021405650e-06
	3.040477958735611e-07
	2.271218355535299e-06
	6.886433412964896e-08
	-2.128012963236128e-04
	1.994125471803484e-07
	2.052834489253232e-05
	5.018516780358152e-05
	5.032226041374394e-05
	2.501955852817769e-05
	8.101285312214837e-05
	1.467906794498162e-05
	1.463436626414731e-05
	4.591194762081298e-05
	6.972286959097325e-05
	1.461718356070601e-05
	1.495468237668915e-05
	2.156232715157071e-05
	6.905675316545223e-06
	1.699525978851052e-06
	1.699014418946475e-06
	4.881009446145994e-05
	3.219654902089406e-05
	1.694122647361735e-06
	1.751769186058440e-06
	2.314166991366630e-05
	9.427047410289880e-06
	1.582830120082333e-02
	1.576492364302669e-02
	1.504783527141746e-05
	7.522410002222783e-06
	1.575376286866601e-02
	1.607096026557048e-02
	2.294552313810034e-06
	2.966391154630655e-05
	1.817612959212399e-05
	3.104715692641857e-05
	1.933708188554578e-05
	1.674385273957413e-05
	2.382842414898794e-06
	2.189649831826529e-05
	-2.262955694846914e-03
	7.504144486843721e-07
	1.545200874097377e-02
	9.236375890451981e-07
	-8.743190640444160e-04
	8.583090761541758e-06
	2.424754432857453e-02
	6.702427206836945e-05
	1.313400460150291e-05
	1.965922309125071e-05
	7.404630584834141e-06
	1.771271355302344e-05
	6.365096681031332e-06
	2.554904874846647e-06
	1.900883622656787e-05
	2.704512169315855e-06
	2.841334781743485e-05
	1.974927660534632e-05
	1.654204909127832e-05
	1.328126851876116e-06
	3.613685131473371e-06
	7.241040951701137e-04
	9.195793836181012e-03
	-3.008886243160483e-03
	-7.650846332488157e-03
	2.232635892092453e-03
	1.885649703964529e-02
	1.349991692555415e-03
	3.951806008333752e-03
	2.414186030614983e-02
	1.608404847096916e-02
	1.994125471803485e-05
	7.326942859317289e-06
	1.462577491242666e-05
	1.637425724686121e-05
	4.568373148614028e-05
	1.486301364225366e-05
	1.000000000000000e-03
	0.000000000000000e+00
 2	2.000000000000000e-12
	8.922151321818791e-06
	-1.029799714006274e-05
	7.181284499766763e-05
	1.249238388765872e-05
	3.361148486583062e-05
	3.354664660690058e-05
	-4.250958217894590e-06
	8.528193515821618e-05
	3.344529289279588e-05
	3.445253987213892e-05
	-3.762596356016354e-05
	6.305606161580348e-05
	3.418688143750410e-05
	-4.710101755311725e-05
	3.337500534226896e-05
	3.262726273751106e-06
	3.974560337293698e-06
	8.855253109369705e-06
	3.394696259941572e-05
	4.587880630764090e-05
	-4.947590984525091e-06
	1.211797938312081e-05
	2.842741435774386e-05
	3.433803333232417e-05
	4.454660422348782e-05
	-2.787800158756259e-05
	4.464769481736233e-05
	2.828437940217884e-05
	2.399188380883776e-07
	-6.152497237547216e-06
	2.399188380883776e-07
	-1.321573576846603e-08
	-2.763978806008925e-07
	7.498393801815342e-05
	-3.337156602774224e-05
	-3.355986234266904e-05
	3.056282360411253e-06
	3.343207715702742e-05
	3.323032862666257e-05
	-1.554866624806998e-05
	-1.321573576846603e-08
	-1.222211245476341e-06
	-3.096214877135964e-06
	-1.222211245476341e-06
	1.595504406268624e-05
	1.442744030693036e-06
	-6.358941150887069e-06
	4.063778146162547e-07
	6.460031744761589e-06
	1.010905938745208e-07
	-4.326293134816006e-04
	2.763978806008925e-07
	2.757941414809113e-05
	6.269434764167970e-05
	6.308446188938313e-05
	3.616705622540452e-05
	1.237974265192443e-04
	2.677100027848087e-05
	2.672836351297734e-05
	5.810208224249898e-05
	1.124694914274341e-04
	2.664119086533898e-05
	2.747829154790854e-05
	3.273470097346333e-05
	1.304845957862811e-05
	1.732503840019091e-06
	1.729167240599364e-06
	6.105318506297354e-05
	4.526208991009191e-05
	1.718892528579051e-06
	1.778622116155069e-06
	3.153581658077681e-05
	1.932425246474416e-05
	7.650362444535090e-02
	7.630586607769345e-02
	2.769165365801453e-05
	1.573510276960239e-05
	7.616800555322423e-02
	7.813333676860620e-02
	2.243614788248778e-06
	4.269276059247085e-05
	2.366166641574561e-05
	4.273210005752201e-05
	3.030275230155957e-05
	2.785451796559148e-05
	2.307597394707599e-06
	3.345388876218742e-05
	-1.228817098920723e-02
	3.492386646558554e-06
	7.637631485693266e-02
	7.113672285963000e-07
	-1.261888159587343e-02
	1.459194187254636e-05
	1.044987305146221e-01
	1.046946630968043e-04
	1.824670913550545e-05
	3.176924918037851e-05
	1.426359400220884e-05
	3.086837150931304e-05
	1.385450180395789e-05
	2.509966383649024e-06
	3.195856798010863e-05
	3.256869764394106e-06
	3.994941416653641e-05
	3.132150090219252e-05
	2.794793561938961e-05
	1.593430069329722e-06
	3.609248210875051e-06
	7.003324007463421e-03
	4.426750051212031e-02
	-1.906042189014089e-02
	-3.994908931673790e-02
	1.372862757024864e-02
	8.841940780160898e-02
	1.707107022769249e-03
	2.607598178068223e-02
	1.009338033162947e-01
	7.560004811631657e-02
	2.763978806008925e-05
	1.558163553148479e-05
	2.668477718915816e-05
	2.922318564569026e-05
	8.998072562178410e-05
	2.723023355568294e-05
	2.000000000000000e-03
	0.000000000000000e+00
 3	3.000000000000000e-12
	1.507546190820628e-05
	-1.951015124031028e-05
	1.088713847161313e-04
	1.933960638344703e-05
	5.098517015394433e-05
	5.092822426354985e-05
	-7.373256160190403e-06
	1.289292881442841e-04
	5.073400780148100e-05
	5.224107068942987e-05
	-5.757597730623595e-05
	9.530505073324231e-05
	5.129540740989538e-05
	-7.080907961624306e-05
	5.020272114604554e-05
	3.515787406434502e-06
	7.127687070878450e-06
	1.758683318975868e-05
	5.086993282321550e-05
	6.883381627595386e-05
	-7.947774837327834e-06
	2.110262059619318e-05
	4.225494630871771e-05
	5.187847762538435e-05
	6.726324430748860e-05
	-4.142833985062876e-05
	6.735568417696678e-05
	4.236273803987418e-05
	4.254745866798812e-07
	-1.106387704314965e-05
	4.254745866798812e-07
	-4.208296417884286e-08
	-2.455690893119528e-07
	1.094191369039739e-04
	-5.055969556726445e-05
	-5.097030722772869e-05
	4.221966544306752e-06
	5.069192483730215e-05
	5.026580734914065e-05
	-2.356157292775378e-05
	-4.208296417884286e-08
	-1.975263340289208e-06
	-6.841910498842893e-06
	-1.975263340289208e-06
	2.449597111699923e-05
	1.923318050551597e-06
	-1.035769790527740e-05
	9.343981892454197e-07
	1.045013777475558e-05
	9.243986947818115e-08
	-6.547351805079667e-04
	2.455690893119528e-07
	2.448234909579880e-05
	6.370300826756935e-05
	6.415267727078976e-05
	3.472497333035010e-05
	1.635556608257498e-04
	2.748803524774650e-05
	2.748158099207389e-05
	5.750156202372483e-05
	1.521884077902208e-04
	2.733648878649911e-05
	2.823869750833739e-05
	3.111953538085105e-05
	1.386462908680115e-05
	1.735569809154242e-06
	1.742788103615649e-06
	6.047261266445417e-05
	4.554342726948912e-05
	1.735193599231323e-06
	1.777838272356508e-06
	2.833625123676100e-05
	2.099703198517599e-05
	1.553624825344748e-01
	1.550730972207003e-01
	2.795312592101916e-05
	2.085932019436304e-05
	1.545950541967503e-01
	1.591695442892093e-01
	2.193280308067379e-06
	4.295714396275163e-05
	2.066018228954574e-05
	4.292677535309323e-05
	2.921415525162857e-05
	2.846837714528928e-05
	2.593319699400824e-06
	3.361778101953673e-05
	-2.941247419650618e-02
	5.364657441469113e-06
	1.562031654775795e-01
	9.792082330123470e-07
	-3.712162364019941e-02
	1.454119079941432e-05
	1.946642873246071e-01
	1.402857020070288e-04
	1.871009161612721e-05
	3.210593843621506e-05
	1.817093125018829e-05
	3.099876691057612e-05
	1.820623222780915e-05
	2.556429315633914e-06
	3.146306485120385e-05
	4.050295147924151e-06
	4.041725047050248e-05
	3.142237277315770e-05
	2.835263772265547e-05
	1.517481584994815e-06
	3.659293825763965e-06
	2.102842036011605e-02
	8.602219167629707e-02
	-4.923212142648015e-02
	-8.163393048921254e-02
	2.682933867396861e-02
	1.765240215145481e-01
	2.415978457213259e-03
	6.447661343338226e-02
	1.929549726759316e-01
	1.516567415082267e-01
	2.455690893119528e-05
	2.077183494595724e-05
	2.740903488928650e-05
	2.965932146537203e-05
	1.313029642847687e-04
	2.772002822016279e-05
	3.000000000000001e-03
	0.000000000000000e+00
 4	4.000000000000000e-12
	2.083332768759049e-05
	-3.138530152491917e-05
	1.459774850354372e-04
	2.624494710014477e-05
	6.828899376849964e-05
	6.833539702092445e-05
	-1.012460100006311e-05
	1.727130561385077e-04
	6.807134296196813e-05
	7.004048584259089e-05
	-7.743174033034695e-05
	1.276337457055886e-04
	6.854574470509023e-05
	-9.494673348669245e-05
	6.730713933028384e-05
	3.307279232577379e-06
	9.883523868379520e-06
	2.910864440892515e-05
	6.807623067407891e-05
	9.229670497320335e-05
	-1.094980381921097e-05
	3.241592364150253e-05
	5.635733551107286e-05
	6.945635696287310e-05
	9.003721676792654e-05
	-5.527131523980910e-05
	9.040156956849842e-05
	5.654387023100707e-05
	4.695140310113096e-07
	-1.568291981746812e-05
	4.695140310113096e-07
	-7.541850246096847e-08
	-2.410771316835920e-07
	1.413277546135886e-04
	-6.781947973748832e-05
	-6.841081552338541e-05
	5.169510127553375e-06
	6.799592445950714e-05
	6.739045732910178e-05
	-3.141445722769815e-05
	-7.541850246096847e-08
	-2.650028513489115e-06
	-1.051340968991474e-05
	-2.650028513489115e-06
	3.268701221889612e-05
	2.276657115994025e-06
	-1.382068892249212e-05
	1.272554991197977e-06
	1.418504172306399e-05
	3.643528005718633e-07
	-8.774345376598158e-04
	2.410771316835920e-07
	2.413688992410751e-05
	6.135327828713148e-05
	6.176308727787122e-05
	3.355190012615566e-05
	2.003127649528307e-04
	2.509398533096708e-05
	2.520110189824826e-05
	5.564205284787310e-05
	1.889116767851352e-04
	2.507318332869777e-05
	2.578570597704234e-05
	2.999109213654111e-05
	1.364790515697409e-05
	1.727956737782461e-06
	1.738001242611797e-06
	5.860790404319616e-05
	4.335388312675386e-05
	1.730669249676624e-06
	1.783587275449359e-06
	2.748131708741095e-05
	2.047262560568875e-05
	2.298949633597167e-01
	2.297174626757646e-01
	2.514971477948829e-05
	2.467430418109548e-05
	2.288352169892376e-01
	2.357101933701100e-01
	2.276442327186500e-06
	4.077159991649980e-05
	2.085527720857755e-05
	4.098765311623340e-05
	2.775442304579752e-05
	2.682009732247365e-05
	2.468642240717964e-06
	3.169848692005070e-05
	-4.874101844650101e-02
	4.994234972249382e-06
	2.297601844525675e-01
	8.529874869508792e-07
	-6.066102995992707e-02
	1.453284389233563e-05
	2.794184163075669e-01
	1.736790168597612e-04
	1.834031424323193e-05
	3.038755213539858e-05
	2.112535383159882e-05
	2.865715457376671e-05
	2.133948510276694e-05
	2.587761469117011e-06
	2.971579442033830e-05
	4.940151982031183e-06
	3.836246221123236e-05
	2.947670461283137e-05
	2.631589565746052e-05
	1.575293297714674e-06
	3.711395879952557e-06
	3.703970635017373e-02
	1.275489113187666e-01
	-9.045196193090650e-02
	-1.203282275846177e-01
	2.981063307694805e-02
	2.589960907587037e-01
	4.510547573832494e-03
	1.107276685278826e-01
	2.804347172060800e-01
	2.233027451957059e-01
	2.410771316835920e-05
	2.458789685273547e-05
	2.513714261347301e-05
	2.726365746065048e-05
	1.695933055363063e-04
	2.512178386823420e-05
	4.000000000000000e-03
	0.000000000000000e+00
 5	5.000000000000000e-12
	2.672788686720219e-05
	-4.579596848061984e-05
	1.830165852569003e-04
	3.330726170872820e-05
	8.561048421760235e-05
	8.570131787107518e-05
	-1.280383498892941e-05
	2.166217615071124e-04
	8.534793559584442e-05
	8.790278441546037e-05
	-9.692643193401553e-05
	1.598947499642076e-04
	8.609015332288473e-05
	-1.190792836190346e-04
	8.412259694508614e-05
	2.326612844014912e-06
	1.255605814930389e-05
	4.315174559083683e-05
	8.555206445170441e-05
	1.156719041049215e-04
	-1.417182871789830e-05
	4.547835843485173e-05
	6.995076822718786e-05
	8.699612507129736e-05
	1.127633231785381e-04
	-6.922181741721544e-05
	1.137676156512790e-04
	7.062557410925818e-05
	5.380888711803245e-07
	-2.054785028172816e-05
	5.380888711803245e-07
	-1.040020622977211e-07
	-2.477768396255230e-07
	1.708257930264926e-04
	-8.507239534642202e-05
	-8.580531993337289e-05
	6.104447944402040e-06
	8.524393353354670e-05
	8.449540490134727e-05
	-3.941170965313025e-05
	-1.040020622977211e-07
	-3.407379514113083e-06
	-1.444340233732612e-05
	-3.407379514113083e-06
	4.081546634517299e-05
	2.644222889783010e-06
	-1.677001518134103e-05
	1.403756692042734e-06
	1.777430765408194e-05
	1.004292472740910e-06
	-1.099909598692745e-03
	2.477768396255230e-07
	2.479437043123539e-05
	6.082646248090756e-05
	6.127897979311568e-05
	3.352284061031726e-05
	2.343212468435270e-04
	2.463229341477575e-05
	2.475867463434181e-05
	5.559084537390123e-05
	2.228903442697217e-04
	2.463855681961584e-05
	2.542149539147444e-05
	3.000847042088106e-05
	1.377559298005807e-05
	1.736119804484477e-06
	1.736202202448139e-06
	5.855219806369293e-05
	4.326275110956587e-05
	1.726093550888330e-06
	1.787026615583193e-06
	2.839877441485843e-05
	2.163067299420426e-05
	2.996872581415466e-01
	2.998923443863393e-01
	2.516224586527927e-05
	2.864559303951292e-05
	2.986724623555782e-01
	3.075818890935392e-01
	2.257036785262888e-06
	4.068390390725306e-05
	2.125211844773530e-05
	4.122087093605086e-05
	2.783692233085598e-05
	2.719266517827320e-05
	2.445826499137533e-06
	3.192950809899978e-05
	-6.556030054945818e-02
	4.527890998413876e-06
	2.987897787442407e-01
	9.528969514766473e-07
	-8.081020356000854e-02
	1.446888483163399e-05
	3.630088652170249e-01
	2.043976067921171e-04
	1.854654682772031e-05
	3.010563889003389e-05
	2.405824772295537e-05
	2.866621161265040e-05
	2.469705937799214e-05
	2.556412210614212e-06
	2.971484635531414e-05
	5.506834589315547e-06
	3.841378014432455e-05
	2.969016155917155e-05
	2.637838696186096e-05
	1.544487705360421e-06
	3.753960053601595e-06
	5.132438389897519e-02
	1.686295763972096e-01
	-1.417862043663035e-01
	-1.557987970625256e-01
	2.493579945973800e-02
	3.378714582121062e-01
	6.212472826949212e-03
	1.648816374865526e-01
	3.652977584209258e-01
	2.915806994545800e-01
	2.477768396255230e-05
	2.855760720965651e-05
	2.469861572697882e-05
	2.709156991707971e-05
	2.049909516317911e-04
	2.489664024281789e-05
	5.000000000000001e-03
	0.000000000000000e+00
 6	5.999999999999999e-12
	3.270622763573830e-05
	-6.240224019384873e-05
	2.200243414927755e-04
	4.055113873038739e-05
	1.029716614456978e-04
	1.030710672263148e-04
	-1.566122312284728e-05
	2.606389174415405e-04
	1.026186705627287e-04
	1.057554531733386e-04
	-1.165218453984573e-04
	1.921203062171943e-04
	1.035024960943181e-04
	-1.431093010604646e-04
	1.008606222756101e-04
	6.469745216297611e-07
	1.540854232956336e-05
	5.939887880059744e-05
	1.028183289931113e-04
	1.389004092819983e-04
	-1.729768530617493e-05
	6.004585332222719e-05
	8.356293696943511e-05
	1.045182184683419e-04
	1.354650720138231e-04
	-8.322653846461114e-05
	1.372710613476989e-04
	8.481430317711005e-05
	6.841671012067748e-07
	-2.571081786206854e-05
	6.841671012067748e-07
	-1.357667503818322e-07
	-2.526807932839203e-07
	1.982366772476918e-04
	-1.022874943444911e-04
	-1.032068339766966e-04
	6.872101713843348e-06
	1.024829038123468e-04
	1.015465613948723e-04
	-4.742324044423073e-05
	-1.357667503818322e-07
	-4.208891778466276e-06
	-1.883871614822519e-05
	-4.208891778466276e-06
	4.901100515672968e-05
	3.003361393251287e-06
	-1.948569066985495e-05
	1.587764712498929e-06
	2.129168000373078e-05
	1.805989333875822e-06
	-1.322290649162082e-03
	2.526807932839203e-07
	2.528618356366679e-05
	6.165845345170100e-05
	6.215153422450222e-05
	3.419962136477947e-05
	2.659438162861096e-04
	2.554554122493286e-05
	2.558216564304023e-05
	5.638269563844220e-05
	2.544850983384592e-04
	2.543294282354215e-05
	2.638403503504836e-05
	3.068257730324257e-05
	1.451064037579835e-05
	1.734230998998880e-06
	1.737845579605403e-06
	5.934277969506198e-05
	4.427050726697775e-05
	1.728577239900369e-06
	1.783493271977060e-06
	2.900552487101300e-05
	2.309731166022096e-05
	3.704674342177414e-01
	3.709229710782243e-01
	2.615887558055035e-05
	3.252103853875236e-05
	3.693277988065249e-01
	3.807013838692720e-01
	2.239162432965137e-06
	4.169197332235882e-05
	2.163130894157074e-05
	4.246154730451179e-05
	2.849913368955404e-05
	2.843206226214893e-05
	2.445015209423369e-06
	3.316586078119646e-05
	-8.102279155567189e-02
	4.779451052795163e-06
	3.698935365757002e-01
	9.463480301749146e-07
	-1.012463489118144e-01
	1.509602547559199e-05
	4.475857854458867e-01
	2.327690449819081e-04
	1.908426910343123e-05
	3.115710297374802e-05
	2.713936668069762e-05
	2.965941924934368e-05
	2.800535906691636e-05
	2.558854968717206e-06
	3.102938886526141e-05
	6.177428177467737e-06
	3.953683139178306e-05
	3.092484546694218e-05
	2.749752728825598e-05
	1.561606708213696e-06
	3.772956524939947e-06
	6.533358564961075e-02
	2.106023731927529e-01
	-2.026980851937727e-01
	-1.916574461991703e-01
	1.519452551100140e-02
	4.185882065408305e-01
	6.903963035073047e-03
	2.270633128646286e-01
	4.524208360049731e-01
	3.618759217180156e-01
	2.526807932839203e-05
	3.243630304711390e-05
	2.550755423329119e-05
	2.806989455711213e-05
	2.378840126972301e-04
	2.585147997714112e-05
	6.000000000000000e-03
	0.000000000000000e+00
 7	6.999999999999999e-12
	3.883981620366641e-05
	-8.116533043803482e-05
	2.570278769829392e-04
	4.808442530996988e-05
	1.202903597501931e-04
	1.204546096934744e-04
	-1.853276625520861e-05
	3.047628844300922e-04
	1.199112827369526e-04
	1.235992825522439e-04
	-1.361146190322781e-04
	2.243425901077175e-04
	1.209132579506611e-04
	-1.671837404815398e-04
	1.175818527770695e-04
	-1.570265143534114e-06
	1.827404262193774e-05
	7.781364711261155e-05
	1.201061235753531e-04
	1.621593376787464e-04
	-2.056577358172866e-05
	7.624338196907746e-05
	9.701607919534082e-05
	1.220396341751334e-04
	1.581690247512584e-04
	-9.719262903641507e-05
	1.609451735254704e-04
	9.879852498220898e-05
	8.071343753080690e-07
	-3.110964987845430e-05
	8.071343753080690e-07
	-1.734521149293109e-07
	-2.587236332708709e-07
	2.235975539920573e-04
	-1.194832253748850e-04
	-1.206280618084037e-04
	7.468528370413892e-06
	1.197378306220233e-04
	1.185748797494506e-04
	-5.555295368038378e-05
	-1.734521149293109e-07
	-5.024402802793309e-06
	-2.364112150804041e-05
	-5.024402802793309e-06
	5.715884962617766e-05
	3.351683325423256e-06
	-2.207085636450630e-05
	1.605895945793902e-06
	2.484700513871832e-05
	2.776148774212030e-06
	-1.544766008001903e-03
	2.587236332708709e-07
	2.589368786028826e-05
	6.258937608965809e-05
	6.311469482222461e-05
	3.519052362827001e-05
	2.952165425379714e-04
	2.647031168849032e-05
	2.651900913787726e-05
	5.728694437682974e-05
	2.837322401285820e-04
	2.635475379117349e-05
	2.736047894511485e-05
	3.168771572216174e-05
	1.534920087617131e-05
	1.730715737397073e-06
	1.738740857666464e-06
	6.024732146063937e-05
	4.537970666075875e-05
	1.729369046277932e-06
	1.786016799107225e-06
	2.960155678591345e-05
	2.469487419681202e-05
	4.443475331400381e-01
	4.448865779965736e-01
	2.692331988580446e-05
	3.628068352612594e-05
	4.428381003319165e-01
	4.570322564409931e-01
	2.254558280736262e-06
	4.280174206038016e-05
	2.225131774712938e-05
	4.374085201739657e-05
	2.937797941628830e-05
	2.968044929809624e-05
	2.399866870784217e-06
	3.445114689173841e-05
	-9.748287230366939e-02
	5.202402542909547e-06
	4.437801645769370e-01
	9.984861301056925e-07
	-1.224983111149003e-01
	1.578337843299104e-05
	5.350524800458671e-01
	2.589117196010277e-04
	1.988214872454488e-05
	3.228781033200389e-05
	3.012037400007484e-05
	3.076463064459087e-05
	3.124757842276092e-05
	2.556385911732868e-06
	3.219037989161907e-05
	6.741279133729487e-06
	4.056291094463187e-05
	3.221634314209029e-05
	2.852762000119745e-05
	1.531234927788854e-06
	3.804084904616531e-06
	8.055208660425084e-02
	2.545518103640202e-01
	-2.736073644203564e-01
	-2.288822592129257e-01
	6.872660052245853e-04
	5.026770239222560e-01
	7.288032862043648e-03
	2.976060058056748e-01
	5.438335751494964e-01
	4.355833384822753e-01
	2.587236332708709e-05
	3.619817991457116e-05
	2.643688146452538e-05
	2.911261584925692e-05
	2.683170647904688e-04
	2.669627777266127e-05
	7.000000000000000e-03
	0.000000000000000e+00
 8	8.000000000000000e-12
	4.513449597831232e-05
	-1.017699952787865e-04
	2.940315761608641e-04
	5.583556231324012e-05
	1.376074581679429e-04
	1.378470697119565e-04
	-2.144693348503675e-05
	3.489779385973728e-04
	1.372004128469776e-04
	1.414811112413075e-04
	-1.556452828974999e-04
	2.565641995233917e-04
	1.383862932633642e-04
	-1.912283765172690e-04
	1.341983494124631e-04
	-4.359992376267997e-06
	2.118122988957582e-05
	9.807977677250069e-05
	1.374685466378280e-04
	1.853410790962619e-04
	-2.395326608873651e-05
	9.371978439623269e-05
	1.102450833237266e-04
	1.395621346136961e-04
	1.808739672053185e-04
	-1.111533448738245e-04
	1.848128084317871e-04
	1.127169363600996e-04
	9.177466255361910e-07
	-3.676661009627846e-05
	9.177466255361910e-07
	-2.142448003566904e-07
	-2.657035954609273e-07
	2.472079433185864e-04
	-1.366897115424067e-04
	-1.380613145123132e-04
	7.936669206607462e-06
	1.369861680466209e-04
	1.355938138203003e-04
	-6.377223151984759e-05
	-2.142448003566904e-07
	-5.887297421007153e-06
	-2.882994088967099e-05
	-5.887297421007152e-06
	6.533582300612268e-05
	3.690218506285832e-06
	-2.446994851340299e-05
	1.563591486275107e-06
	2.840878973987162e-05
	3.938841226468638e-06
	-1.767340824022284e-03
	2.657035954609273e-07
	2.659741943847206e-05
	6.339949191820064e-05
	6.400127835420904e-05
	3.613805718217586e-05
	3.224853508577977e-04
	2.725556312888536e-05
	2.737260670156274e-05
	5.818735991949596e-05
	3.109777265404213e-04
	2.719070404108336e-05
	2.828420162097446e-05
	3.266274421191438e-05
	1.617255362395113e-05
	1.733063437442681e-06
	1.739891443924164e-06
	6.114744365666921e-05
	4.650981477485753e-05
	1.728559009874157e-06
	1.790115817764018e-06
	3.042039623910259e-05
	2.624214281365454e-05
	5.206782828838137e-01
	5.214479692068906e-01
	2.775756231997485e-05
	3.993460591764536e-05
	5.189102986602833e-01
	5.360886869034974e-01
	2.257989462581388e-06
	4.393252154644005e-05
	2.284388107034656e-05
	4.495832701932033e-05
	3.029919727464221e-05
	3.087875213098011e-05
	2.362262226898444e-06
	3.567702305501813e-05
	-1.146972843394165e-01
	5.487791984711710e-06
	5.199294299599470e-01
	1.025238249639061e-06
	-1.446490344969180e-01
	1.652714166490432e-05
	6.255432097621479e-01
	2.830758873807197e-04
	2.068143001206883e-05
	3.334598054989513e-05
	3.304721189421546e-05
	3.192774933260554e-05
	3.442713797181002e-05
	2.542816983053492e-06
	3.339197217125600e-05
	7.246426651115608e-06
	4.154544296598718e-05
	3.344804784298203e-05
	2.951525802952899e-05
	1.521205323929600e-06
	3.833753069222607e-06
	9.680787804039533e-02
	3.005682223687999e-01
	-3.536095322546950e-01
	-2.669830446997710e-01
	-1.783143440858487e-02
	5.901161693088997e-01
	7.363955189967616e-03
	3.760646527005637e-01
	6.388425308907365e-01
	5.121101579360158e-01
	2.657035954609273e-05
	3.985435986788698e-05
	2.728165537132305e-05
	3.015955706078459e-05
	2.966495319823038e-04
	2.750596652586586e-05
	8.000000000000000e-03
	0.000000000000000e+00
 9	9.000000000000000e-12
	5.162797131972097e-05
	-1.241259433594851e-04
	3.310269378109768e-04
	6.390732911551289e-05
	1.549448005054307e-04
	1.552548862521833e-04
	-2.445776244560732e-05
	3.932791119845617e-04
	1.544892648966808e-04
	1.593934896857619e-04
	-1.751388241029048e-04
	2.887780573996472e-04
	1.558881137080719e-04
	-2.152030162221013e-04
	1.506810616572975e-04
	-7.672136153664264e-06
	2.418265431360817e-05
	1.200994069168198e-04
	1.548411423439019e-04
	2.083928720930628e-04
	-2.744531700611280e-05
	1.124272707631555e-04
	1.232357446511848e-04
	1.570784720595772e-04
	2.035734180460835e-04
	-1.250379335083339e-04
	2.088721479617128e-04
	1.263852864612616e-04
	1.046971364169984e-06
	-4.273430389838337e-05
	1.046971364169984e-06
	-2.622695889635170e-07
	-2.751081319991504e-07
	2.691531686250765e-04
	-1.538978291412607e-04
	-1.555171558411469e-04
	8.320359109105230e-06
	1.542269953077172e-04
	1.525833455567234e-04
	-7.222768822461812e-05
	-2.622695889635170e-07
	-6.810144129038538e-06
	-3.441394478927815e-05
	-6.810144129038539e-06
	7.357504117754583e-05
	4.026536442665325e-06
	-2.674180863561388e-05
	1.347352952927711e-06
	3.204053855124327e-05
	5.298729915629399e-06