Title: CKT7
Date: Wed Oct 11 09:08:25 2017
Plotname: Transient analysis
Flags: real
No. Variables: 3
No. Points: 1001    
Command: version 4.3.1
Variables:
 0 time S
 1 v(5) V
 2 v(6) V
Values:
 0	0.000000000000000e+00
	0.000000000000000e+00
	0.000000000000000e+00
 1	1.000000000000000e-12
	4.544451376439030e-05
	1.636012408881065e-05
 2	2.000000000000000e-12
	8.898429206872678e-05
	2.913965877132200e-05
 3	3.000000000000000e-12
	1.292100021196246e-04
	2.948576223172697e-05
 4	4.000000000000000e-12
	1.663739501006154e-04
	2.706238732011793e-05
 5	5.000000000000000e-12
	2.007206396477195e-04
	2.689750857017061e-05
 6	5.999999999999999e-12
	2.326777042709532e-04
	2.786139912458104e-05
 7	6.999999999999999e-12
	2.623779835073118e-04
	2.889226507013871e-05
 8	8.000000000000000e-12
	2.902247162461132e-04
	2.994207127058467e-05
 9	9.000000000000000e-12
	3.163592354877616e-04
	3.123256552144558e-05
 10	9.999999999999999e-12
	3.410401351178645e-04
	3.292256355466413e-05
 11	1.100000000000000e-11
	3.189825089669368e-04
	1.797051569722687e-05
 12	1.200000000000000e-11
	2.976178578791050e-04
	2.806779022968813e-06
 13	1.300000000000000e-11
	2.784639442079605e-04
	-1.828997652398435e-06
 14	1.400000000000000e-11
	2.613415853036618e-04
	-6.795120535350811e-07
 15	1.500000000000000e-11
	2.460142630021582e-04
	8.297786635356654e-07
 16	1.600000000000000e-11
	2.322176409881142e-04
	1.374036191308686e-06
 17	1.700000000000000e-11
	2.198626345581610e-04
	1.325556162587941e-06
 18	1.800000000000000e-11
	2.087692401467221e-04
	1.166672538945891e-06
 19	1.900000000000000e-11
	1.990530145846128e-04
	1.069113610733291e-06
 20	2.000000000000000e-11
	1.908969656526709e-04
	1.013004505763262e-06
 21	2.100000000000000e-11
	1.851603355888685e-04
	9.533542041872002e-07
 22	2.200000000000000e-11
	1.839896849795834e-04
	8.742024768023303e-07
 23	2.300000000000000e-11
	1.934504614714091e-04
	7.757262512787491e-07
 24	2.400000000000000e-11
	2.286462918753467e-04
	6.378345454570090e-07
 25	2.500000000000000e-11
	2.750211555534077e-04
	4.388167492460714e-07
 26	2.600000000000000e-11
	2.757500633679248e-04
	2.968476098765156e-07
 27	2.700000000000000e-11
	2.531163390454562e-04
	3.091765331348760e-07
 28	2.800000000000000e-11
	2.294272755838802e-04
	3.093568057816336e-07
 29	2.900000000000000e-11
	2.101255135279329e-04
	2.004014033633990e-07
 30	3.000000000000000e-11
	1.952523557322014e-04
	1.220442938970670e-07
 31	3.100000000000000e-11
	1.844274820650860e-04
	1.612011603084270e-07
 32	3.200000000000001e-11
	1.777427516031045e-04
	2.597993060128112e-07
 33	3.300000000000001e-11
	1.781493464519055e-04
	3.634624285986437e-07
 34	3.400000000000001e-11
	1.939898568506307e-04
	4.415220385126812e-07
 35	3.500000000000001e-11
	2.397438622361237e-04
	4.465122254107666e-07
 36	3.600000000000002e-11
	2.788564693189601e-04
	3.533817108851276e-07
 37	3.700000000000002e-11
	2.727927711683406e-04
	2.695590048090311e-07
 38	3.800000000000002e-11
	2.538497722045878e-04
	7.119353611322743e-08
 39	3.900000000000003e-11
	2.376152024078180e-04
	-9.068669131998579e-07
 40	4.000000000000003e-11
	2.273416304993227e-04
	-3.557908446771659e-06
 41	4.100000000000003e-11
	2.223222280667646e-04
	-7.711505919907668e-06
 42	4.200000000000004e-11
	2.203207377158261e-04
	-9.013578523581403e-06
 43	4.300000000000004e-11
	2.195083074070110e-04
	-2.851850054099501e-06
 44	4.400000000000004e-11
	2.206406030048248e-04
	4.630829499041183e-06
 45	4.500000000000004e-11
	2.228646328023084e-04
	5.734866900462587e-06
 46	4.600000000000005e-11
	2.247685115142984e-04
	4.262884546971072e-06
 47	4.700000000000005e-11
	2.262898457076910e-04
	4.132441532174854e-06
 48	4.800000000000005e-11
	2.280428297498221e-04
	4.383293242525364e-06
 49	4.900000000000006e-11
	2.314066141266060e-04
	4.428245829350719e-06
 50	5.000000000000006e-11
	2.369526794933550e-04
	3.474673632111178e-06
 51	5.100000000000006e-11
	2.438437230375201e-04
	-2.217294267178052e-06
 52	5.200000000000007e-11
	2.563294417925749e-04
	-1.276691369907120e-05
 53	5.300000000000007e-11
	2.851215195998719e-04
	-1.232068803491935e-05
 54	5.400000000000007e-11
	3.358859649045457e-04
	1.775413919683767e-06
 55	5.500000000000008e-11
	3.645080148607370e-04
	8.359217462060765e-06
 56	5.600000000000008e-11
	3.519473615399444e-04
	6.224951238327682e-06
 57	5.700000000000008e-11
	3.307476789217795e-04
	5.926456940067088e-06
 58	5.800000000000008e-11
	3.161639422157394e-04
	7.271520431662043e-06
 59	5.900000000000008e-11
	3.073661820604495e-04
	9.169678687345786e-06
 60	6.000000000000008e-11
	2.994843765825142e-04
	1.120935348094861e-05
 61	6.100000000000007e-11
	2.908889508489258e-04
	1.176522228778277e-05
 62	6.200000000000007e-11
	2.834707423412006e-04
	1.799774900895817e-05
 63	6.300000000000007e-11
	2.762448491940910e-04
	4.465796881454790e-05
 64	6.400000000000006e-11
	2.703665767904751e-04
	9.678028828337984e-05
 65	6.500000000000006e-11
	2.660317745948756e-04
	1.590066073472406e-04
 66	6.600000000000006e-11
	2.614112522776419e-04
	2.460904348362442e-04
 67	6.700000000000005e-11
	2.564553424069394e-04
	3.420912074686485e-04
 68	6.800000000000005e-11
	2.518867174521387e-04
	2.145621436200389e-04
 69	6.900000000000005e-11
	2.484904179567083e-04
	1.452261717365416e-04
 70	7.000000000000004e-11
	2.462936520319963e-04
	2.847334179963077e-04
 71	7.100000000000004e-11
	2.431413019212628e-04
	2.335793264668743e-04
 72	7.200000000000004e-11
	2.404482496718204e-04
	3.957726169196006e-05
 73	7.300000000000003e-11
	2.397308851503238e-04
	8.233316828380608e-06
 74	7.400000000000003e-11
	2.394297735055897e-04
	3.474425519084280e-05
 75	7.500000000000003e-11
	2.393657081601367e-04
	5.394865323097492e-05
 76	7.600000000000002e-11
	2.402077639086145e-04
	6.116812911398309e-05
 77	7.700000000000002e-11
	2.422139049829427e-04
	3.860175034525031e-05
 78	7.800000000000001e-11
	2.456722052545894e-04
	1.389825318497284e-05
 79	7.900000000000001e-11
	2.496923886131218e-04
	2.061373413840463e-06
 80	8.000000000000001e-11
	2.498364329397296e-04
	1.368545598720255e-07
 81	8.100000000000000e-11
	2.490048290045168e-04
	3.031077970537724e-06
 82	8.200000000000000e-11
	2.496702101841604e-04
	5.019749367554499e-06
 83	8.300000000000000e-11
	2.499001028619742e-04
	2.882384541917265e-06
 84	8.399999999999999e-11
	2.503828103434479e-04
	-3.567271021993706e-06
 85	8.499999999999999e-11
	2.519250794545677e-04
	-1.145122476481135e-05
 86	8.599999999999999e-11
	2.539352271123050e-04
	-1.017074739380930e-05
 87	8.699999999999998e-11
	2.545141724849574e-04
	3.233066223436865e-06
 88	8.799999999999998e-11
	2.521708430872659e-04
	9.900126183681408e-06
 89	8.899999999999998e-11
	2.510870281574491e-04
	5.824073481941779e-06
 90	8.999999999999997e-11
	2.507845826584062e-04
	3.783501770637277e-06
 91	9.099999999999997e-11
	2.499215585339743e-04
	2.306179655653703e-06
 92	9.199999999999997e-11
	2.492839271857479e-04
	-3.106067795954470e-06
 93	9.299999999999996e-11
	2.495067237181777e-04
	-1.056033802769572e-05
 94	9.399999999999996e-11
	2.502466067097100e-04
	-1.157487353036431e-05
 95	9.499999999999996e-11
	2.508260801847247e-04
	5.440133487391265e-07
 96	9.599999999999995e-11
	2.490403621833476e-04
	9.692538925696975e-06
 97	9.699999999999995e-11
	2.472030860693984e-04
	6.802475573136931e-06
 98	9.799999999999995e-11
	2.468189646801126e-04
	3.911680499184413e-06
 99	9.899999999999994e-11
	2.461771058839314e-04
	3.405152845421512e-06
 100	9.999999999999994e-11
	2.453307932503732e-04
	-1.217400171313529e-07
 101	1.009999999999999e-10
	2.450264868238842e-04
	-6.655628589497863e-06
 102	1.019999999999999e-10
	2.455069878646837e-04
	-1.242585129816591e-05
 103	1.029999999999999e-10
	2.463783138637518e-04
	-7.083866426337627e-06
 104	1.039999999999999e-10
	2.463142924262357e-04
	6.338391748642858e-06
 105	1.049999999999999e-10
	2.442871645329135e-04
	9.286993470219455e-06
 106	1.059999999999999e-10
	2.433995018622965e-04
	4.885967920633586e-06
 107	1.069999999999999e-10
	2.432737995206043e-04
	3.777431529355772e-06
 108	1.079999999999999e-10
	2.427377676994870e-04
	2.512886928213616e-06
 109	1.089999999999999e-10
	2.422422111352703e-04
	-2.252887209460057e-06
 110	1.099999999999999e-10
	2.425182021526180e-04
	-9.317179335324015e-06
 111	1.109999999999999e-10
	2.433933666886082e-04
	-1.220835695821713e-05
 112	1.119999999999999e-10
	2.444692311098754e-04
	-1.978012125116551e-06
 113	1.129999999999999e-10
	2.436785212388075e-04
	9.210337457779890e-06
 114	1.139999999999999e-10
	2.419603956605952e-04
	7.743821500641022e-06
 115	1.149999999999999e-10
	2.417640402330657e-04
	4.032839619625120e-06
 116	1.159999999999999e-10
	2.416508600496146e-04
	3.628295300698078e-06
 117	1.169999999999999e-10
	2.412082720284596e-04
	1.084909688435255e-06
 118	1.179999999999999e-10
	2.411161309330985e-04
	-4.826883899312331e-06
 119	1.189999999999999e-10
	2.418713534021925e-04
	-1.170000153357211e-05
 120	1.199999999999999e-10
	2.430697267157633e-04
	-9.737038902097289e-06
 121	1.209999999999999e-10
	2.438107236621018e-04
	3.543182905347156e-06
 122	1.219999999999999e-10
	2.422416644198403e-04
	9.976745029238019e-06
 123	1.229999999999999e-10
	2.412213546023637e-04
	5.883550964528219e-06
 124	1.239999999999999e-10
	2.413336758145309e-04
	3.806359283577933e-06
 125	1.249999999999999e-10
	2.410901394755449e-04
	3.022856165356340e-06
 126	1.259999999999998e-10
	2.407611478423612e-04
	-1.056056140372496e-06
 127	1.269999999999998e-10
	2.411144863912439e-04
	-7.950963188251088e-06
 128	1.279999999999998e-10
	2.421689145476153e-04
	-1.264791750595139e-05
 129	1.289999999999998e-10
	2.435158085304786e-04
	-4.642419952815042e-06
 130	1.299999999999998e-10
	2.432561138433778e-04
	7.989798506189238e-06
 131	1.309999999999998e-10
	2.414727091552524e-04
	8.669042926271212e-06
 132	1.319999999999998e-10
	2.412132735061949e-04
	4.459751360504693e-06
 133	1.329999999999998e-10
	2.412596408456095e-04
	3.756118242681613e-06
 134	1.339999999999998e-10
	2.409143790320205e-04
	1.665197256072362e-06
 135	1.349999999999998e-10
	2.408186029342977e-04
	-3.899202001299017e-06
 136	1.359999999999998e-10
	2.415831914067088e-04
	-1.097947357418175e-05
 137	1.369999999999998e-10
	2.428377633175692e-04
	-1.081467700251033e-05
 138	1.379999999999998e-10
	2.438523057858952e-04
	1.838507186776395e-06
 139	1.389999999999998e-10
	2.424771895465846e-04
	9.810187567331491e-06
 140	1.399999999999998e-10
	2.412353104588246e-04
	6.392496796863615e-06
 141	1.409999999999998e-10
	2.413619116190021e-04
	3.873913332615192e-06
 142	1.419999999999998e-10
	2.411909749168427e-04
	3.288858464591924e-06
 143	1.429999999999998e-10
	2.408625404261184e-04
	-4.793628216154618e-07
 144	1.439999999999998e-10
	2.411439113999953e-04
	-7.224146296285024e-06
 145	1.449999999999998e-10
	2.421770735107742e-04
	-1.255452311179349e-05
 146	1.459999999999998e-10
	2.435525648412953e-04
	-5.921128136721624e-06
 147	1.469999999999998e-10
	2.435757867192090e-04
	7.295449420824342e-06
 148	1.479999999999998e-10
	2.417620320229755e-04
	8.985714484776367e-06
 149	1.489999999999998e-10
	2.413235472748575e-04
	4.592339850550318e-06
 150	1.499999999999998e-10
	2.414017393145246e-04
	3.750542446987191e-06
 151	1.509999999999998e-10
	2.410705850355947e-04
	2.040760326380404e-06
 152	1.519999999999998e-10
	2.409194057419654e-04
	-3.277860395933091e-06
 153	1.529999999999998e-10
	2.416085854505830e-04
	-1.047445707809597e-05
 154	1.539999999999998e-10
	2.428217626313702e-04
	-1.143396001665335e-05
 155	1.549999999999997e-10
	2.439411336346070e-04
	5.831240461994093e-07
 156	1.559999999999997e-10
	2.427651336891574e-04
	9.887894861445288e-06
 157	1.569999999999997e-10
	2.413951919027553e-04
	6.871432453352000e-06
 158	1.579999999999997e-10
	2.414527665776198e-04
	3.882881789956195e-06
 159	1.589999999999997e-10
	2.413055607041386e-04
	3.388558660539460e-06
 160	1.599999999999997e-10
	2.409517683012884e-04
	5.207431974904353e-09
 161	1.609999999999997e-10
	2.411451593568486e-04
	-6.544672142700988e-06
 162	1.619999999999997e-10
	2.421308018291930e-04
	-1.248594896557370e-05
 163	1.629999999999997e-10
	2.434888122003374e-04
	-7.157554833601196e-06
 164	1.639999999999997e-10
	2.437117573954383e-04
	6.310393975852359e-06
 165	1.649999999999997e-10
	2.419017695966754e-04
	9.460869994592922e-06
 166	1.659999999999997e-10
	2.413580948384923e-04
	4.972307917679331e-06
 167	1.669999999999997e-10
	2.414600893629005e-04
	3.792257608354423e-06
 168	1.679999999999997e-10
	2.411409712871845e-04
	2.323251756030637e-06
 169	1.689999999999997e-10
	2.409321146484884e-04
	-2.687832419947060e-06
 170	1.699999999999997e-10
	2.415372692197575e-04
	-9.942141737847070e-06
 171	1.709999999999997e-10
	2.426983131958547e-04
	-1.206362569309882e-05
 172	1.719999999999997e-10
	2.439095164256946e-04
	-6.427925136034666e-07
 173	1.729999999999997e-10
	2.429626962667166e-04
	9.620628397587197e-06
 174	1.739999999999997e-10
	2.414484507886039e-04
	7.282518066953995e-06
 175	1.749999999999997e-10
	2.414455001398157e-04
	4.007919213676259e-06
 176	1.759999999999997e-10
	2.413517456962614e-04
	3.519192552787609e-06
 177	1.769999999999997e-10
	2.409877137404307e-04
	4.295489867134855e-07
 178	1.779999999999997e-10
	2.410848392577304e-04
	-5.868173965032204e-06
 179	1.789999999999997e-10
	2.420351636216050e-04
	-1.219288906970418e-05
 180	1.799999999999997e-10
	2.433806522545948e-04
	-8.381074586054018e-06
 181	1.809999999999997e-10
	2.438153898625529e-04
	5.299812491294144e-06
 182	1.819999999999997e-10
	2.420664995452340e-04
	9.639875919620688e-06
 183	1.829999999999997e-10
	2.413482435666633e-04
	5.257804267459952e-06
 184	1.839999999999996e-10
	2.414687962965879e-04
	3.792443383137084e-06
 185	1.849999999999996e-10
	2.411799508207353e-04
	2.628767966794363e-06
 186	1.859999999999996e-10
	2.409320185504489e-04
	-2.124403360294024e-06
 187	1.869999999999996e-10
	2.414489985563216e-04
	-9.290064013080222e-06
 188	1.879999999999996e-10
	2.425987940726821e-04
	-1.219692536882339e-05
 189	1.889999999999996e-10
	2.439143072557962e-04
	-2.076442393106636e-06
 190	1.899999999999996e-10
	2.431385504938076e-04
	9.071597486486307e-06
 191	1.909999999999996e-10
	2.415039668394054e-04
	7.742266900157015e-06
 192	1.919999999999996e-10
	2.414279294897269e-04
	4.082594871258078e-06
 193	1.929999999999996e-10
	2.413748730058881e-04
	3.598509360043619e-06
 194	1.939999999999996e-10
	2.410081530519331e-04
	9.237594825664543e-07
 195	1.949999999999996e-10
	2.410523324300746e-04
	-5.226081955409571e-06
 196	1.959999999999996e-10
	2.419253338241252e-04
	-1.202109023379991e-05
 197	1.969999999999996e-10
	2.432376362680256e-04
	-9.103554859398222e-06
 198	1.979999999999996e-10
	2.439247246937587e-04
	4.387072956036863e-06
 199	1.989999999999996e-10
	2.422449695850279e-04
	9.783237389287072e-06
 200	1.999999999999996e-10
	2.413472752409402e-04
	5.595753639460830e-06
 201	2.009999999999996e-10
	2.414742163041179e-04
	3.783576995185674e-06
 202	2.019999999999996e-10
	2.412112145537673e-04
	2.830964466473785e-06
 203	2.029999999999996e-10
	2.409113201494208e-04
	-1.503188594200256e-06
 204	2.039999999999996e-10
	2.413709571729019e-04
	-8.582314491340786e-06
 205	2.049999999999996e-10
	2.424631411654035e-04
	-1.276342489950501e-05
 206	2.059999999999996e-10
	2.437927056060215e-04
	-3.388442417236561e-06
 207	2.069999999999996e-10
	2.433088683760924e-04
	8.718658048741901e-06
 208	2.079999999999996e-10
	2.415853434089607e-04
	8.222575283997037e-06
 209	2.089999999999996e-10
	2.414094259949060e-04
	4.259714436674407e-06
 210	2.099999999999996e-10
	2.414037466090217e-04
	3.688412310021919e-06
 211	2.109999999999996e-10
	2.410401826077592e-04
	1.272820368702598e-06
 212	2.119999999999996e-10
	2.409883185255111e-04
	-4.530862108096154e-06
 213	2.129999999999995e-10
	2.418260499812477e-04
	-1.146516257419132e-05
 214	2.139999999999995e-10
	2.431038803001069e-04
	-1.024795518266603e-05
 215	2.149999999999995e-10
	2.439310798643995e-04
	3.062173564553088e-06
 216	2.159999999999995e-10
	2.424005508324098e-04
	9.914298060664976e-06
 217	2.169999999999995e-10
	2.413438774617858e-04
	6.001255212325501e-06
 218	2.179999999999995e-10
	2.414679231369766e-04
	3.833385305464311e-06
 219	2.189999999999995e-10
	2.412475134496480e-04
	3.106220203962074e-06
 220	2.199999999999995e-10
	2.409149539640448e-04
	-9.558667130484546e-07
 221	2.209999999999995e-10
	2.412870668880520e-04
	-7.966962505019821e-06
 222	2.219999999999995e-10
	2.423567625641295e-04
	-1.256552383638351e-05
 223	2.229999999999995e-10
	2.437245676540925e-04
	-4.640646985618361e-06
 224	2.239999999999995e-10
	2.434604506804388e-04
	8.233154031851227e-06
 225	2.249999999999995e-10
	2.416955721994964e-04
	8.523289547686347e-06
 226	2.259999999999995e-10
	2.414125897276708e-04
	4.507451332370916e-06
 227	2.269999999999995e-10
	2.414461601501932e-04
	3.845843385115748e-06
 228	2.279999999999995e-10
	2.411011201558524e-04
	1.753491565843247e-06
 229	2.289999999999995e-10
	2.410101975727911e-04
	-3.930845929629190e-06
 230	2.299999999999995e-10
	2.417647005916589e-04
	-1.112276649442903e-05
 231	2.309999999999995e-10
	2.430195859703055e-04
	-1.075496450447453e-05
 232	2.319999999999995e-10
	2.440276070877039e-04
	1.945724703526773e-06
 233	2.329999999999995e-10
	2.426337182981276e-04
	9.912877230781175e-06
 234	2.339999999999995e-10
	2.414134678022781e-04
	6.418478371018753e-06
 235	2.349999999999995e-10
	2.415105640541108e-04
	3.829226066904036e-06
 236	2.359999999999995e-10
	2.413176023939583e-04
	3.222921517713965e-06
 237	2.369999999999995e-10
	2.409709395064880e-04
	-4.692152433048745e-07
 238	2.379999999999995e-10
	2.412581226760588e-04
	-7.249845311715209e-06
 239	2.389999999999995e-10
	2.422767995495529e-04
	-1.273229036404162e-05
 240	2.399999999999995e-10
	2.436372635955870e-04
	-5.883989758171411e-06
 241	2.409999999999995e-10
	2.436276336456709e-04
	7.287100999614152e-06
 242	2.419999999999995e-10
	2.418137092834177e-04
	9.047199326686882e-06
 243	2.429999999999995e-10
	2.414006078173197e-04
	4.686965856378457e-06
 244	2.439999999999995e-10
	2.414723793563732e-04
	3.776296620896639e-06
 245	2.449999999999995e-10
	2.411263694789105e-04
	1.987416193218586e-06
 246	2.459999999999995e-10
	2.409593326928343e-04
	-3.292457712706038e-06
 247	2.469999999999995e-10
	2.416537159977475e-04
	-1.046184632605172e-05
 248	2.479999999999995e-10
	2.428615174975024e-04
	-1.149666234140159e-05
 249	2.489999999999995e-10
	2.439706210554155e-04
	5.894644165236801e-07
 250	2.499999999999994e-10
	2.427731729372822e-04
	9.727101866425777e-06
 251	2.509999999999994e-10
	2.413919548009006e-04
	6.846092706014638e-06
 252	2.519999999999994e-10
	2.414640256832906e-04
	3.932306134016568e-06
 253	2.529999999999994e-10
	2.413251147051756e-04
	3.453914044362184e-06
 254	2.539999999999994e-10
	2.409707965446923e-04
	-2.846384858780303e-08
 255	2.549999999999994e-10
	2.411578100535454e-04
	-6.578340875825436e-06
 256	2.559999999999994e-10
	2.421449050193192e-04
	-1.240340717633608e-05
 257	2.569999999999994e-10
	2.435065305325453e-04
	-7.078433178303842e-06
 258	2.579999999999994e-10
	2.437324926171925e-04
	6.383464268727613e-06
 259	2.589999999999994e-10
	2.419313731768051e-04
	9.298933703249847e-06
 260	2.599999999999994e-10
	2.413510302294489e-04
	4.884794039295143e-06
 261	2.609999999999994e-10
	2.414542303571832e-04
	3.774927204824367e-06
 262	2.619999999999994e-10
	2.411389361716835e-04
	2.366680584183066e-06
 263	2.629999999999994e-10
	2.409363151329892e-04
	-2.704047886789252e-06
 264	2.639999999999994e-10
	2.415420914952648e-04
	-9.912763785818244e-06
 265	2.649999999999994e-10
	2.427189745407672e-04
	-1.185176878102150e-05
 266	2.659999999999994e-10
	2.439399120290489e-04
	-6.760638344009039e-07
 267	2.669999999999994e-10
	2.429593718652210e-04
	9.558843460654105e-06
 268	2.679999999999994e-10
	2.414492934023908e-04
	7.293349216534177e-06
 269	2.689999999999994e-10
	2.414462348247095e-04
	3.943845436059955e-06
 270	2.699999999999994e-10
	2.413422969480658e-04
	3.503172555887646e-06
 271	2.709999999999994e-10
	2.409768378956698e-04
	4.774417984433330e-07
 272	2.719999999999994e-10
	2.410958833322762e-04
	-5.886956478220137e-06
 273	2.729999999999994e-10
	2.420264376576485e-04
	-1.234092552753427e-05
 274	2.739999999999994e-10
	2.433621533836914e-04
	-8.150895778619631e-06
 275	2.749999999999994e-10
	2.438187104167442e-04
	5.412599924833689e-06
 276	2.759999999999994e-10
	2.420672174151800e-04
	9.668764777474535e-06
 277	2.769999999999994e-10
	2.413490439021652e-04
	5.272279895061497e-06
 278	2.779999999999994e-10
	2.414725806069615e-04
	3.791076487000833e-06
 279	2.789999999999993e-10
	2.411731573630520e-04
	2.587394241762495e-06
 280	2.799999999999993e-10
	2.409152337903294e-04
	-2.092789612143850e-06
 281	2.809999999999993e-10
	2.414507314777599e-04
	-9.236096389994110e-06
 282	2.819999999999993e-10
	2.425878239593442e-04
	-1.236840254801938e-05
 283	2.829999999999993e-10
	2.438710191469481e-04
	-2.082114477604715e-06
 284	2.839999999999993e-10
	2.431232605882694e-04
	9.109392451066223e-06
 285	2.849999999999993e-10
	2.414849230815963e-04
	7.784020584586721e-06
 286	2.859999999999993e-10
	2.414232243288564e-04
	4.131254585453032e-06
 287	2.869999999999993e-10
	2.413766700190837e-04
	3.659833359127526e-06
 288	2.879999999999993e-10
	2.410094277411030e-04
	8.742618370857345e-07
 289	2.889999999999993e-10
	2.410397518435358e-04
	-5.214927445292656e-06
 290	2.899999999999993e-10
	2.419262382516555e-04
	-1.186050147561035e-05
 291	2.909999999999993e-10
	2.432409826917310e-04
	-9.175013578839058e-06
 292	2.919999999999993e-10
	2.439032167155455e-04
	4.289743269707988e-06
 293	2.929999999999993e-10
	2.422354011280146e-04
	9.742196396456470e-06
 294	2.939999999999993e-10
	2.413265380069292e-04
	5.560066649713183e-06
 295	2.949999999999993e-10
	2.414651159520621e-04
	3.810030732342724e-06
 296	2.959999999999993e-10
	2.412087574227337e-04
	2.894933040021646e-06
 297	2.969999999999993e-10
	2.409248284850522e-04
	-1.551184047566549e-06
 298	2.979999999999993e-10
	2.413680958929560e-04
	-8.601375723338070e-06
 299	2.989999999999993e-10
	2.424721544002276e-04
	-1.246923335183252e-05
 300	2.999999999999993e-10
	2.438073947264318e-04
	-3.356620555770441e-06
 301	3.009999999999993e-10
	2.433178229142582e-04
	8.720388220715567e-06
 302	3.019999999999993e-10
	2.415926896485506e-04
	8.190577226673870e-06
 303	3.029999999999993e-10
	2.414086900111925e-04
	4.175573494332492e-06
 304	3.039999999999993e-10
	2.413970967705428e-04
	3.667452413182982e-06
 305	3.049999999999993e-10
	2.410352858568056e-04
	1.311603834588974e-06
 306	3.059999999999993e-10
	2.410028886396368e-04
	-4.553197611703317e-06
 307	3.069999999999993e-10
	2.418244389418929e-04
	-1.154056710607438e-05
 308	3.079999999999992e-10
	2.431020697018169e-04
	-1.005677645054865e-05
 309	3.089999999999992e-10
	2.439359610387272e-04
	3.117783360021263e-06
 310	3.099999999999992e-10
	2.424020396763475e-04
	1.001578940991496e-05
 311	3.109999999999992e-10
	2.413551311135196e-04
	6.017957282087643e-06
 312	3.119999999999992e-10
	2.414767975711614e-04
	3.812684702297014e-06
 313	3.129999999999992e-10
	2.412454652721071e-04
	3.056095164036582e-06
 314	3.139999999999992e-10
	2.409263747913240e-04
	-9.990883913364983e-07
 315	3.149999999999992e-10
	2.412866277556353e-04
	-7.908969928654680e-06
 316	3.159999999999992e-10
	2.423535631131364e-04
	-1.265069618649939e-05
 317	3.169999999999992e-10
	2.437116476920570e-04
	-4.722889050956039e-06
 318	3.179999999999992e-10
	2.434510029855972e-04
	7.949198075686712e-06
 319	3.189999999999992e-10
	2.416540884583078e-04
	8.693392565995447e-06
 320	3.199999999999992e-10
	2.413921146428177e-04
	4.362733110416892e-06
 321	3.209999999999992e-10
	2.414224442449171e-04
	3.790344309264624e-06
 322	3.219999999999992e-10
	2.410700226663049e-04
	1.630509622583088e-06
 323	3.229999999999992e-10
	2.409584672732059e-04
	-3.904530939602996e-06
 324	3.239999999999992e-10
	2.417126965943812e-04
	-1.097809738459489e-05
 325	3.249999999999992e-10
	2.429571405128386e-04
	-1.080373468623361e-05
 326	3.259999999999992e-10
	2.439560141956358e-04
	1.874581805540477e-06
 327	3.269999999999992e-10
	2.425695511320787e-04
	9.825715759102475e-06
 328	3.279999999999992e-10
	2.413243813902802e-04
	6.395153836232688e-06
 329	3.289999999999992e-10
	2.414425609115266e-04
	3.883570219646337e-06
 330	3.299999999999992e-10
	2.412630763910314e-04
	3.300241648892763e-06
 331	3.309999999999992e-10
	2.409263490655464e-04
	-4.743825648196220e-07
 332	3.319999999999992e-10
	2.411989429250048e-04
	-7.217288663252182e-06
 333	3.329999999999992e-10
	2.422236968841685e-04
	-1.253885854381389e-05
 334	3.339999999999992e-10
	2.435912037437710e-04
	-5.907149784191093e-06
 335	3.349999999999992e-10
	2.436073401227636e-04
	7.300432844762905e-06
 336	3.359999999999991e-10
	2.417917098054871e-04
	8.997289471450908e-06
 337	3.369999999999991e-10
	2.413491419795831e-04
	4.606615649150880e-06
 338	3.379999999999991e-10
	2.414243636443953e-04
	3.767884696890098e-06
 339	3.389999999999991e-10
	2.410899319914612e-04
	2.063385925435306e-06
 340	3.399999999999991e-10
	2.409344777698584e-04
	-3.252797227146026e-06
 341	3.409999999999991e-10
	2.416179457373416e-04
	-1.044987224582186e-05
 342	3.419999999999991e-10
	2.428267910682195e-04
	-1.141849015080761e-05
 343	3.429999999999991e-10
	2.439463232815032e-04
	5.804213234864736e-07
 344	3.439999999999991e-10
	2.427726119418865e-04
	9.893858409334784e-06
 345	3.449999999999991e-10
	2.413984225596448e-04
	6.905216413858992e-06
 346	3.459999999999991e-10
	2.414541238593605e-04
	3.912830671662174e-06
 347	3.469999999999991e-10
	2.413066795504273e-04
	3.427659237678055e-06
 348	3.479999999999991e-10
	2.409512631456546e-04
	6.129732705101064e-08
 349	3.489999999999991e-10
	2.411419285991302e-04
	-6.476911510342708e-06
 350	3.499999999999991e-10
	2.421244140409244e-04
	-1.243231025465467e-05
 351	3.509999999999991e-10
	2.434805310029972e-04
	-7.110089041341566e-06
 352	3.519999999999991e-10
	2.437113023652354e-04
	6.396934713636101e-06
 353	3.529999999999991e-10
	2.419042695326539e-04
	9.646484616870874e-06
 354	3.539999999999991e-10
	2.413537789132474e-04
	5.303246086003427e-06
 355	3.549999999999991e-10
	2.414569317286487e-04
	4.362500849498653e-06
 356	3.559999999999991e-10
	2.411373770626243e-04
	3.369573047907592e-06
 357	3.569999999999991e-10
	2.409194785677503e-04
	-7.292842179692721e-07
 358	3.579999999999991e-10
	2.415317305959699e-04
	-6.426046787509782e-06
 359	3.589999999999991e-10
	2.426989058328367e-04
	-6.261667187359273e-06
 360	3.599999999999991e-10
	2.439123422166565e-04
	9.423818352185825e-06
 361	3.609999999999991e-10
	2.429548137908868e-04
	2.742891409396322e-05
 362	3.619999999999991e-10
	2.414585977011480e-04
	3.937548163016776e-05
 363	3.629999999999991e-10
	2.414592939908096e-04
	5.970658403664444e-05
 364	3.639999999999991e-10
	2.413671362602694e-04
	1.028738541071419e-04
 365	3.649999999999990e-10
	2.409950029847828e-04
	1.678260178657970e-04
 366	3.659999999999990e-10
	2.410908763551455e-04
	2.687457360637941e-04
 367	3.669999999999990e-10
	2.421064795770869e-04
	3.381160862376659e-04
 368	3.679999999999990e-10
	2.437344149166021e-04
	1.729880081708289e-04
 369	3.689999999999990e-10
	2.444996878721341e-04
	1.561700515652507e-04
 370	3.699999999999990e-10
	2.429701864761455e-04
	3.017592170417605e-04
 371	3.709999999999990e-10
	2.429840294821927e-04
	1.969734979463265e-04
 372	3.719999999999990e-10
	2.439020917587620e-04
	3.598939201075732e-05
 373	3.729999999999990e-10
	2.440925714534275e-04
	3.340590191468055e-05
 374	3.739999999999990e-10
	2.433103067104145e-04
	4.852096853319768e-05
 375	3.749999999999990e-10
	2.420383765939612e-04
	4.762579415760344e-05
 376	3.759999999999990e-10
	2.417240745300467e-04
	4.301068709363323e-05
 377	3.769999999999990e-10
	2.431292073372052e-04
	2.554224420698896e-05
 378	3.779999999999990e-10
	2.431580391412553e-04
	2.408344130727632e-06
 379	3.789999999999990e-10
	2.415194882642248e-04
	-1.711419330818464e-05
 380	3.799999999999990e-10
	2.406623048080938e-04
	-1.677314805473128e-05
 381	3.809999999999990e-10
	2.397632902607309e-04
	1.093009049266197e-06
 382	3.819999999999990e-10
	2.397052282846629e-04
	9.071353781778162e-06
 383	3.829999999999990e-10
	2.396196361777784e-04
	5.514917667775529e-06
 384	3.839999999999990e-10
	2.389529804700500e-04
	4.292663455100139e-06
 385	3.849999999999990e-10
	2.390398328222361e-04
	4.895434393014540e-06
 386	3.859999999999990e-10
	2.404512661236958e-04
	3.885825500445457e-06
 387	3.869999999999990e-10
	2.405576013065205e-04
	-1.224218080273952e-06
 388	3.879999999999990e-10
	2.398004368458639e-04
	-1.200041298956535e-05
 389	3.889999999999990e-10
	2.387746708896214e-04
	-1.375892487177381e-05
 390	3.899999999999990e-10
	2.375926194196062e-04
	3.935629268943418e-07
 391	3.909999999999990e-10
	2.376194386859920e-04
	8.411255613778672e-06
 392	3.919999999999990e-10
	2.373802575573175e-04
	5.884605354977939e-06
 393	3.929999999999990e-10
	2.367032516221622e-04
	4.587973688363832e-06
 394	3.939999999999989e-10
	2.371064439373998e-04
	4.658595735639036e-06
 395	3.949999999999989e-10
	2.384924523621660e-04
	3.223477557187190e-06
 396	3.959999999999989e-10
	2.383009652135032e-04
	-2.995295961178424e-06
 397	3.969999999999989e-10
	2.377037287855972e-04
	-1.374464344687935e-05
 398	3.979999999999989e-10
	2.366245706140632e-04
	-1.157612080559587e-05
 399	3.989999999999989e-10
	2.357668273629201e-04
	3.011019404034736e-06
 400	3.999999999999989e-10
	2.360165465107047e-04
	8.240837158660781e-06
 401	4.009999999999989e-10
	2.357517553456300e-04
	5.388487244038931e-06
 402	4.019999999999989e-10
	2.352503392294021e-04
	4.598056328300970e-06
 403	4.029999999999989e-10
	2.360719940420874e-04
	4.569484507443149e-06
 404	4.039999999999989e-10
	2.374740157496504e-04
	2.718516835503917e-06
 405	4.049999999999989e-10
	2.371189727089766e-04
	-4.777389913850977e-06
 406	4.059999999999989e-10
	2.366146064627121e-04
	-1.466012337529980e-05
 407	4.069999999999989e-10
	2.354991929680792e-04