Title: CKT4
Date: Thu Nov  2 16:28:48 2017
Plotname: Transient analysis
Flags: real
No. Variables: 6
No. Points: 251     
Command: version 4.3.1
Variables:
 0 time S
 1 v(7) V
 2 v(8) V
 3 v(9) V
 4 v(10) V
 5 v(VIN) V
Values:
 0	0.000000000000000e+00
	0.000000000000000e+00
	0.000000000000000e+00
	0.000000000000000e+00
	0.000000000000000e+00
	0.000000000000000e+00
 1	1.000000000000000e-12
	8.122522702974285e-07
	8.187748881903293e-07
	8.188047635946044e-07
	8.188048717962191e-07
	0.000000000000000e+00
 2	2.000000000000000e-12
	2.296537950480603e-06
	2.384706808402781e-06
	2.386250248858034e-06
	2.386271822711092e-06
	0.000000000000000e+00
 3	3.000000000000000e-12
	3.493572490833060e-06
	3.823166296658192e-06
	3.835935499157990e-06
	3.836281918264145e-06
	0.000000000000000e+00
 4	4.000000000000000e-12
	4.322420081752245e-06
	5.091664612067163e-06
	5.142497098863358e-06
	5.144610678304060e-06
	0.000000000000000e+00
 5	5.000000000000000e-12
	4.752240566781013e-06
	6.141369950187499e-06
	6.283355744198999e-06
	6.291788120109261e-06
	0.000000000000000e+00
 6	5.999999999999999e-12
	4.806179312345301e-06
	6.920934788026527e-06
	7.236358536140421e-06
	7.262055637334535e-06
	0.000000000000000e+00
 7	6.999999999999999e-12
	4.551139809485401e-06
	7.385451444998379e-06
	7.978607606175001e-06
	8.043063099237343e-06
	0.000000000000000e+00
 8	8.000000000000000e-12
	4.080883409026440e-06
	7.507117018188207e-06
	8.486260518027132e-06
	8.625267067633812e-06
	0.000000000000000e+00
 9	9.000000000000000e-12
	3.496474258779718e-06
	7.284417746587776e-06
	8.736005616939569e-06
	9.001132128655469e-06
	0.000000000000000e+00
 10	9.999999999999999e-12
	2.888269007557926e-06
	6.746968134246891e-06
	8.708470600818822e-06
	9.164375036003793e-06
	5.206008686296708e-14
 11	1.100000000000000e-11
	2.322878052004176e-06
	5.954281205721734e-06
	8.393167076297442e-06
	9.109597758549467e-06
	5.183388889537454e-12
 12	1.200000000000000e-11
	1.837065142727915e-06
	4.988358843121298e-06
	7.793921328767586e-06
	8.832669039413642e-06
	2.640569981512794e-10
 13	1.300000000000000e-11
	1.438951054003127e-06
	3.941616156625893e-06
	6.933321446070440e-06
	8.332094148694438e-06
	8.730904769614864e-09
 14	1.400000000000000e-11
	1.118245629490130e-06
	2.902911199334198e-06
	5.854692356517650e-06
	7.611361199283880e-06
	1.875229435856467e-07
 15	1.500000000000000e-11
	9.020391545453979e-07
	1.945841331099977e-06
	4.620562280567503e-06
	6.681922561725564e-06
	2.595065916625587e-06
 16	1.600000000000000e-11
	1.240768037152891e-06
	1.130992342885339e-06
	3.307603508817915e-06
	5.566159270652797e-06
	2.283081671699713e-05
 17	1.700000000000000e-11
	4.828542259358114e-06
	5.722759576210454e-07
	2.000460588038536e-06
	4.299528218163745e-06
	1.259254721259536e-04
 18	1.800000000000000e-11
	2.119008979452491e-05
	7.202463441215366e-07
	7.938754390799194e-07
	2.931364715577979e-06
	4.304361196777401e-04
 19	1.900000000000000e-11
	7.004017501727026e-05
	3.083638861739811e-06
	-1.712141627060804e-07
	1.525064055756194e-06
	9.042481011787965e-04
 20	2.000000000000000e-11
	1.712173096017293e-04
	1.127291451353996e-05
	-5.913945849962076e-07
	1.614960667920229e-07
	1.161049020947434e-03
 21	2.100000000000000e-11
	3.210747026512290e-04
	3.139679178819992e-05
	2.348020218859079e-07
	-1.045122046205769e-06
	9.080018391679107e-04
 22	2.200000000000000e-11
	4.843827329414929e-04
	7.044286097611043e-05
	3.696774058089922e-06
	-1.908431055899662e-06
	4.307132910376822e-04
 23	2.300000000000000e-11
	6.146962645456070e-04
	1.336622368636177e-04
	1.202671470230892e-05
	-2.114195620560573e-06
	1.255054221830857e-04
 24	2.400000000000000e-11
	6.668892315028905e-04
	2.202771181128351e-04
	2.848358746944510e-05
	-1.076125445721137e-06
	2.208924688286361e-05
 25	2.500000000000000e-11
	6.220660764816217e-04
	3.219960022268805e-04
	5.670976670270931e-05
	2.213325236789905e-06
	2.266200255358699e-06
 26	2.600000000000000e-11
	5.081760992375051e-04
	4.249925927519173e-04
	9.973078347218967e-05
	9.347678642843260e-06
	1.465211943600339e-07
 27	2.700000000000000e-11
	3.588118687261967e-04
	5.094139512644276e-04
	1.584439626426114e-04
	2.250823530730029e-05
	7.235640774542799e-09
 28	2.800000000000000e-11
	1.986255814428826e-04
	5.509563831581303e-04
	2.298212192644266e-04
	4.337253665844098e-05
	1.579481739549375e-10
 29	2.900000000000000e-11
	5.439715062987978e-05
	5.278795065276547e-04
	3.094138476398724e-04
	7.435362216139164e-05
	2.574758944809388e-12
 30	3.000000000000000e-11
	-5.203563875460658e-05
	4.524595330001274e-04
	3.884597317428987e-04
	1.160340322189456e-04
	1.771261137361477e-14
 31	3.100000000000000e-11
	-1.071760393654251e-04
	3.416001463998287e-04
	4.518022127316040e-04
	1.686635337901047e-04
	0.000000000000000e+00
 32	3.200000000000001e-11
	-1.148611767587736e-04
	2.119165476145263e-04
	4.796345310412572e-04
	2.297978392639542e-04
	0.000000000000000e+00
 33	3.300000000000001e-11
	-8.517903870452207e-05
	8.151727405503878e-05
	4.579831405438437e-04
	2.958432248739625e-04
	0.000000000000000e+00
 34	3.400000000000001e-11
	-3.538063844144684e-05
	-2.822758900993629e-05
	3.936262653732701e-04
	3.600291147574125e-04
	0.000000000000000e+00
 35	3.500000000000001e-11
	1.648492851304549e-05
	-9.927462988722338e-05
	3.012787450721251e-04
	4.096036239121791e-04
	0.000000000000000e+00
 36	3.600000000000002e-11
	5.557806227609562e-05
	-1.246295242184353e-04
	1.943818811273594e-04
	4.270427543910910e-04
	0.000000000000000e+00
 37	3.700000000000002e-11
	7.421720806777508e-05
	-1.087292985692407e-04
	8.630159566897213e-05
	4.028320236945095e-04
	0.000000000000000e+00
 38	3.800000000000002e-11
	7.069778540797338e-05
	-6.286536203192493e-05
	-7.531557641142147e-06
	3.421903002907914e-04
	0.000000000000000e+00
 39	3.900000000000003e-11
	4.992305502167716e-05
	-4.260556259226852e-06
	-7.252884010835507e-05
	2.596818276443624e-04
	0.000000000000000e+00
 40	4.000000000000003e-11
	2.151469608504529e-05
	5.039961314954503e-05
	-1.035129426153714e-04
	1.687958669501192e-04
	0.000000000000000e+00
 41	4.100000000000003e-11
	-5.714511223318444e-06
	8.873097922998102e-05
	-9.947873416676208e-05
	7.965193407936994e-05
	0.000000000000000e+00
 42	4.200000000000004e-11
	-2.413580781119172e-05
	1.034023217843150e-04
	-6.711600089840997e-05
	2.674867863856679e-06
	0.000000000000000e+00
 43	4.300000000000004e-11
	-2.887410186995120e-05
	9.220312464465877e-05
	-1.716366880271759e-05
	-5.152454434915449e-05
	0.000000000000000e+00
 44	4.400000000000004e-11
	-2.189002984542638e-05
	6.352460759259731e-05
	3.580504650302950e-05
	-8.041059684507558e-05
	0.000000000000000e+00
 45	4.500000000000004e-11
	-6.214324899970414e-06
	2.570701884536702e-05
	8.055236122536098e-05
	-8.201181627547405e-05
	0.000000000000000e+00
 46	4.600000000000005e-11
	1.188385019999664e-05
	-8.738792972260865e-06
	1.057276468657672e-04
	-5.892617198446652e-05
	0.000000000000000e+00
 47	4.700000000000005e-11
	2.676191689808647e-05
	-3.195902732781834e-05
	1.099946420333724e-04
	-2.119209097048675e-05
	0.000000000000000e+00
 48	4.800000000000005e-11
	3.342083566655057e-05
	-3.690059713083416e-05
	9.086795411626403e-05
	2.363749623548189e-05
	0.000000000000000e+00
 49	4.900000000000006e-11
	3.186507869319570e-05
	-2.691473320089947e-05
	5.773360928709464e-05
	6.557698141775538e-05
	0.000000000000000e+00
 50	5.000000000000006e-11
	2.214275194110893e-05
	-4.940526071929101e-06
	1.908145899031155e-05
	9.435871611273100e-05
	0.000000000000000e+00
 51	5.100000000000006e-11
	9.001571423301149e-06
	1.960461676221260e-05
	-1.402459480612768e-05
	1.066316976675878e-04
	0.000000000000000e+00
 52	5.200000000000007e-11
	-3.775594094901844e-06
	3.979041821844014e-05
	-3.416600484226394e-05
	1.004662330724015e-04
	0.000000000000000e+00
 53	5.300000000000007e-11
	-1.207945529381115e-05
	4.886036614422078e-05
	-3.572481238110509e-05
	7.653672914551677e-05
	0.000000000000000e+00
 54	5.400000000000007e-11
	-1.452311520497456e-05
	4.625196707645440e-05
	-2.254976089859254e-05
	4.346681224931878e-05
	0.000000000000000e+00
 55	5.500000000000008e-11
	-1.077676059494462e-05
	3.289200285672735e-05
	9.029809621345889e-07
	9.001820525027068e-06
	0.000000000000000e+00
 56	5.600000000000008e-11
	-2.606864341300173e-06
	1.343134059436010e-05
	2.649510562744594e-05
	-1.754612999246287e-05
	0.000000000000000e+00
 57	5.700000000000008e-11
	6.544062903350708e-06
	-5.449105339257537e-06
	4.622435020373577e-05
	-3.095342515935483e-05
	0.000000000000000e+00
 58	5.800000000000008e-11
	1.384449212694294e-05
	-1.872767138448038e-05
	5.499705419877675e-05
	-2.939716191462580e-05
	0.000000000000000e+00
 59	5.900000000000008e-11
	1.705710831467904e-05
	-2.296504520068029e-05
	5.046090962953486e-05
	-1.442122841617995e-05
	0.000000000000000e+00
 60	6.000000000000008e-11
	1.555546080912188e-05
	-1.807010898920672e-05
	3.483752004870192e-05
	8.377356414528765e-06
	0.000000000000000e+00
 61	6.100000000000007e-11
	9.876125141757483e-06
	-6.113884789386214e-06
	1.296946204409169e-05
	3.167894520848363e-05
	0.000000000000000e+00
 62	6.200000000000007e-11
	2.484091946771418e-06
	7.735357149886865e-06
	-7.714706315626650e-06
	4.834176760810667e-05
	0.000000000000000e+00
 63	6.300000000000007e-11
	-4.316423492790321e-06
	1.911388882413566e-05
	-2.178769028414384e-05
	5.426285521777778e-05
	0.000000000000000e+00
 64	6.400000000000006e-11
	-8.722540016053159e-06
	2.497318779467534e-05
	-2.628656447241235e-05
	4.848182476466674e-05
	0.000000000000000e+00
 65	6.500000000000006e-11
	-9.552642239202506e-06
	2.365567794386259e-05
	-2.047424033422618e-05
	3.257963314375070e-05
	0.000000000000000e+00
 66	6.600000000000006e-11
	-6.900137837430114e-06
	1.606005196894081e-05
	-7.163853978354265e-06
	1.166151337013294e-05
	0.000000000000000e+00
 67	6.700000000000005e-11
	-2.024041947159159e-06
	5.096302012475164e-06
	8.765793342622331e-06
	-8.090027322641276e-06
	0.000000000000000e+00
 68	6.800000000000005e-11
	3.380513932745838e-06
	-5.769197934944561e-06
	2.237128120076528e-05
	-2.141741368207839e-05
	0.000000000000000e+00
 69	6.900000000000005e-11
	7.574312964817259e-06
	-1.329345016942865e-05
	2.967354912071994e-05
	-2.508448958399287e-05
	0.000000000000000e+00
 70	7.000000000000004e-11
	9.331828598653970e-06
	-1.547596837613706e-05
	2.885107473342791e-05
	-1.880755819426146e-05
	0.000000000000000e+00
 71	7.100000000000004e-11
	8.287315726577485e-06
	-1.209190804069094e-05
	2.065855159053410e-05
	-5.155459659392504e-06
	0.000000000000000e+00
 72	7.200000000000004e-11
	4.980097036363950e-06
	-4.627808803552203e-06
	8.036648009336754e-06
	1.137198961985149e-05
	0.000000000000000e+00
 73	7.300000000000003e-11
	6.167070825484762e-07
	4.300763579238483e-06
	-4.914880454118933e-06
	2.574950977416575e-05
	0.000000000000000e+00
 74	7.400000000000003e-11
	-3.355382964315522e-06
	1.183285120854629e-05
	-1.425330042612594e-05
	3.389253496158038e-05
	0.000000000000000e+00
 75	7.500000000000003e-11
	-5.716527128285768e-06
	1.575617336470390e-05
	-1.737872530842130e-05
	3.378245255825392e-05
	0.000000000000000e+00
 76	7.600000000000002e-11
	-5.837892734488440e-06
	1.513983416361650e-05
	-1.373574419358852e-05
	2.595129274107805e-05
	0.000000000000000e+00
 77	7.700000000000002e-11
	-3.833952938451797e-06
	1.053058105606512e-05
	-4.848360632548007e-06
	1.319984503300261e-05
	0.000000000000000e+00
 78	7.800000000000001e-11
	-4.724872520553219e-07
	3.680544081443653e-06
	6.276830521361014e-06
	-3.502524644871725e-07
	0.000000000000000e+00
 79	7.900000000000001e-11
	3.112376999456832e-06
	-3.079369676900658e-06
	1.615468884826901e-05
	-1.056035605365951e-05
	0.000000000000000e+00
 80	8.000000000000001e-11
	5.800676283571673e-06
	-7.603287469024860e-06
	2.190501624356424e-05
	-1.451883856921717e-05
	0.000000000000000e+00
 81	8.100000000000000e-11
	6.835631222037533e-06
	-8.585768834285367e-06
	2.208833742895124e-05
	-1.134707776025887e-05
	0.000000000000000e+00
 82	8.200000000000000e-11
	6.034639440023446e-06
	-5.912853840856999e-06
	1.705735206157340e-05
	-2.347535662883695e-06
	0.000000000000000e+00
 83	8.300000000000000e-11
	3.809484427358259e-06
	-6.197645512496636e-07
	8.726997873247338e-06
	9.552171922649525e-06
	0.000000000000000e+00
 84	8.399999999999999e-11
	9.253586023919789e-07
	5.633551573375198e-06
	-2.657684726694970e-07
	2.089828380071041e-05
	0.000000000000000e+00
 85	8.499999999999999e-11
	-1.660195639018224e-06
	1.089754896389004e-05
	-7.075825688307626e-06
	2.833557756349684e-05
	0.000000000000000e+00
 86	8.599999999999999e-11
	-2.915367523332929e-06
	1.316196857745672e-05
	-8.983649409864536e-06
	2.896560598259582e-05
	0.000000000000000e+00
 87	8.699999999999998e-11
	-2.666504458728220e-06
	1.228587906252274e-05
	-6.252724929670018e-06
	2.385827116817053e-05
	0.000000000000000e+00
 88	8.799999999999998e-11
	-1.053487340612420e-06
	8.698963130937726e-06
	1.362754738936781e-07
	1.472887176417629e-05
	0.000000000000000e+00
 89	8.899999999999998e-11
	1.334726463671260e-06
	3.704636151881569e-06
	8.007287073145915e-06
	4.596417820981044e-06
	0.000000000000000e+00
 90	8.999999999999997e-11
	3.667257781232893e-06
	-9.884237936209441e-07
	1.480110432316225e-05
	-3.386428962429360e-06
	0.000000000000000e+00
 91	9.099999999999997e-11
	5.213729619313900e-06
	-3.940111511552116e-06
	1.849556567986279e-05
	-6.957370797162942e-06
	0.000000000000000e+00
 92	9.199999999999997e-11
	5.524833610632597e-06
	-4.331619907927754e-06
	1.810462105918406e-05
	-5.309892244884305e-06
	0.000000000000000e+00
 93	9.299999999999996e-11
	4.569239317478490e-06
	-2.207800137140968e-06
	1.395474727072934e-05
	7.097339804851764e-07
	0.000000000000000e+00
 94	9.399999999999996e-11
	2.718481381350639e-06
	1.588024315139510e-06
	7.510432608686248e-06
	8.952010880376690e-06
	0.000000000000000e+00
 95	9.499999999999996e-11
	6.047824467514753e-07
	5.726554293377609e-06
	8.558048430116466e-07
	1.669254722133757e-05
	0.000000000000000e+00
 96	9.599999999999995e-11
	-1.095615397772437e-06
	8.839937313474315e-06
	-3.987109664692952e-06
	2.149709921041620e-05
	0.000000000000000e+00
 97	9.699999999999995e-11
	-1.880521859085345e-06
	9.955967600747891e-06
	-5.682370260792341e-06
	2.195371169961660e-05
	0.000000000000000e+00
 98	9.799999999999995e-11
	-1.571965440993022e-06
	8.783396039786029e-06
	-3.955916297730379e-06
	1.805470279250569e-05
	0.000000000000000e+00
 99	9.899999999999994e-11
	-3.546030133958916e-07
	5.766823766025211e-06
	3.797871613657282e-07
	1.112690246248080e-05
	0.000000000000000e+00
 100	9.999999999999994e-11
	1.303598903680736e-06
	1.906610680781908e-06
	5.740585343418675e-06
	3.353483877742151e-06
	0.000000000000000e+00
 101	1.009999999999999e-10
	2.816712694293996e-06
	-1.586442884365470e-06
	1.030833244811921e-05
	-2.943123899210829e-06
	0.000000000000000e+00
 102	1.019999999999999e-10
	3.674978417969361e-06
	-3.683797523104374e-06
	1.261203601692508e-05
	-6.022462261761843e-06
	0.000000000000000e+00
 103	1.029999999999999e-10
	3.604432426162350e-06
	-3.853150648151228e-06
	1.196927358323127e-05
	-5.228701099644127e-06
	0.000000000000000e+00
 104	1.039999999999999e-10
	2.643070443687591e-06
	-2.199163561741327e-06
	8.657738553975325e-06
	-1.131446419330743e-06
	0.000000000000000e+00
 105	1.049999999999999e-10
	1.113639840779889e-06
	6.041735365404863e-07
	3.777814154481360e-06
	4.719528015875550e-06
	0.000000000000000e+00
 106	1.059999999999999e-10
	-4.929909912474226e-07
	3.557267983378942e-06
	-1.134041425771772e-06
	1.032921706623267e-05
	0.000000000000000e+00
 107	1.069999999999999e-10
	-1.682269959013620e-06
	5.668700000270762e-06
	-4.606756615310335e-06
	1.390124117370812e-05
	0.000000000000000e+00
 108	1.079999999999999e-10
	-2.113545699309967e-06
	6.269142935048140e-06
	-5.688530528304329e-06
	1.438590440824124e-05
	0.000000000000000e+00
 109	1.089999999999999e-10
	-1.701065375224073e-06
	5.207484512309626e-06
	-4.214447651098960e-06
	1.176776619607553e-05
	0.000000000000000e+00
 110	1.099999999999999e-10
	-6.290595473785017e-07
	2.873367775129219e-06
	-8.142481295066453e-07
	7.017070011288283e-06
	0.000000000000000e+00
 111	1.109999999999999e-10
	7.197378645155419e-07
	4.796409247334746e-08
	3.328594325897161e-06
	1.738052832116426e-06
	0.000000000000000e+00
 112	1.119999999999999e-10
	1.895316189488314e-06
	-2.361194219566871e-06
	6.878161325262063e-06
	-2.360221272577139e-06
	0.000000000000000e+00
 113	1.129999999999999e-10
	2.526909792326312e-06
	-3.611949555164909e-06
	8.773825742167887e-06
	-3.997091134421075e-06
	0.000000000000000e+00
 114	1.139999999999999e-10
	2.437651253193096e-06
	-3.352713004809001e-06
	8.549207415625213e-06
	-2.692777263728466e-06
	0.000000000000000e+00
 115	1.149999999999999e-10
	1.692516476744934e-06
	-1.713566159133835e-06
	6.448153977564860e-06
	1.126306107416959e-06
	0.000000000000000e+00
 116	1.159999999999999e-10
	5.674653307716121e-07
	7.588266880273972e-07
	3.312021533760341e-06
	6.307742742528426e-06
	0.000000000000000e+00
 117	1.169999999999999e-10
	-5.468358434389578e-07
	3.294356649016432e-06
	2.855093210605205e-07
	1.136755127411603e-05
	0.000000000000000e+00
 118	1.179999999999999e-10
	-1.273283569497874e-06
	5.153543889232249e-06
	-1.557592943358369e-06
	1.496459323923412e-05
	0.000000000000000e+00
 119	1.189999999999999e-10
	-1.366636180436301e-06
	5.859492382154665e-06
	-1.547980825411640e-06
	1.630271953069016e-05
	0.000000000000000e+00
 120	1.199999999999999e-10
	-7.849785054997861e-07
	5.335649579542258e-06
	3.879637216615698e-07
	1.533886077161042e-05
	0.000000000000000e+00
 121	1.209999999999999e-10
	3.060331147071489e-07
	3.910419901309167e-06
	3.731529948658945e-06
	1.274246911017873e-05
	0.000000000000000e+00
 122	1.219999999999999e-10
	1.594389231627950e-06
	2.193455634474264e-06
	7.558475828939011e-06
	9.632827529620846e-06
	0.000000000000000e+00
 123	1.229999999999999e-10
	2.726085449241906e-06
	8.685302938203251e-07
	1.084135053071594e-05
	7.188898078976588e-06
	0.000000000000000e+00
 124	1.239999999999999e-10
	3.417711096591947e-06
	4.718500945916794e-07
	1.276668498276447e-05
	6.260534311915772e-06
	0.000000000000000e+00
 125	1.249999999999999e-10
	3.541343167279301e-06
	1.225855930779749e-06
	1.296687865673566e-05
	7.101968962879094e-06
	0.000000000000000e+00
 126	1.259999999999998e-10
	3.156155149432084e-06
	2.977849416834164e-06
	1.159862597223744e-05
	9.304123459801840e-06
	0.000000000000000e+00
 127	1.269999999999998e-10
	2.479068225588607e-06
	5.257663767468703e-06
	9.251691354680840e-06
	1.193707175632090e-05
	0.000000000000000e+00
 128	1.279999999999998e-10
	1.806295150613036e-06
	7.430703209186168e-06
	6.726174260789294e-06
	1.384860253291131e-05
	0.000000000000000e+00
 129	1.289999999999998e-10
	1.412544197229972e-06
	8.893986685839157e-06
	4.755589325408962e-06
	1.401938035867636e-05
	0.000000000000000e+00
 130	1.299999999999998e-10
	1.460495036229890e-06
	9.251945542958058e-06
	3.765762212024765e-06
	1.186322002514603e-05
	0.000000000000000e+00
 131	1.309999999999998e-10
	1.948529507367464e-06
	8.418253161831332e-06
	3.743667771656013e-06
	7.384828879098126e-06
	0.000000000000000e+00
 132	1.319999999999998e-10
	2.711540140920708e-06
	6.615962774561707e-06
	4.252625285609548e-06
	1.157291515511998e-06
	0.000000000000000e+00
 133	1.329999999999998e-10
	3.472459356536763e-06
	4.281677385591271e-06
	4.583339663827844e-06
	-5.860636566788955e-06
	0.000000000000000e+00
 134	1.339999999999998e-10
	3.926508164729830e-06
	1.909384208074773e-06
	3.988856258802223e-06
	-1.260090524126865e-05
	0.000000000000000e+00
 135	1.349999999999998e-10
	3.830872119034585e-06
	-1.132662516269959e-07
	1.928094682552042e-06
	-1.816743787156216e-05
	0.000000000000000e+00
 136	1.359999999999998e-10
	3.072178732367308e-06
	-1.623640698089863e-06
	-1.756338086357665e-06
	-2.203902631167874e-05
	0.000000000000000e+00
 137	1.369999999999998e-10
	1.692453791511502e-06
	-2.721616223932928e-06
	-6.776582205560801e-06
	-2.413975836867775e-05
	0.000000000000000e+00
 138	1.379999999999998e-10
	-1.318390215767418e-07
	-3.716594829255085e-06
	-1.246715480912847e-05
	-2.476653734583699e-05
	0.000000000000000e+00
 139	1.389999999999998e-10
	-2.148156824465275e-06
	-5.003383971094559e-06
	-1.795590459812909e-05
	-2.440877092103705e-05
	0.000000000000000e+00
 140	1.399999999999998e-10
	-4.102934583106998e-06
	-6.907914198605698e-06
	-2.238393343099793e-05
	-2.352871292863413e-05
	0.000000000000000e+00
 141	1.409999999999998e-10
	-5.808505607635374e-06
	-9.552050229874474e-06
	-2.510920501125208e-05
	-2.238110337267958e-05
	0.000000000000000e+00
 142	1.419999999999998e-10
	-7.180928733992953e-06
	-1.277969993823450e-05
	-2.583711363863312e-05
	-2.093413434837806e-05
	0.000000000000000e+00
 143	1.429999999999998e-10
	-8.238119990420299e-06
	-1.616682070292394e-05
	-2.464625739805077e-05
	-1.891639603581430e-05
	0.000000000000000e+00
 144	1.439999999999998e-10
	-9.061061976904359e-06
	-1.911219898756295e-05
	-2.191151616158935e-05
	-1.596960073540086e-05
	0.000000000000000e+00
 145	1.449999999999998e-10
	-9.732987317599958e-06
	-2.098194824428818e-05
	-1.815848374757102e-05
	-1.184995662855744e-05
	0.000000000000000e+00
 146	1.459999999999998e-10
	-1.027852318193478e-05
	-2.126557820507131e-05
	-1.390254344358810e-05
	-6.604199236717393e-06
	0.000000000000000e+00
 147	1.469999999999998e-10
	-1.062470866684231e-05
	-1.969954746647132e-05
	-9.526060445697582e-06
	-6.544614548138311e-07
	0.000000000000000e+00
 148	1.479999999999998e-10
	-1.059871160844766e-05
	-1.632577471705831e-05
	-5.229193817783261e-06
	5.244066489416447e-06
	0.000000000000000e+00
 149	1.489999999999998e-10
	-9.965336965278013e-06
	-1.147364910304364e-05
	-1.061103892187488e-06
	1.016749216710921e-05
	0.000000000000000e+00
 150	1.499999999999998e-10
	-8.494808794244281e-06
	-5.677320234178762e-06
	2.990641083036450e-06
	1.326469111219361e-05
	0.000000000000000e+00
 151	1.509999999999998e-10
	-6.041760996091348e-06
	4.424635843545011e-07
	6.894146289632291e-06
	1.400477947300931e-05
	0.000000000000000e+00
 152	1.519999999999998e-10
	-2.612705883393423e-06
	6.296230371281306e-06
	1.049647950391646e-05
	1.235476661004608e-05
	0.000000000000000e+00
 153	1.529999999999998e-10
	1.597712472797639e-06
	1.141295380214742e-05
	1.350975975921152e-05
	8.830291302186757e-06
	0.000000000000000e+00
 154	1.539999999999998e-10
	6.212929851562373e-06
	1.547994858410104e-05
	1.556986232808463e-05
	4.399032637009985e-06
	0.000000000000000e+00
 155	1.549999999999997e-10
	1.072331145423803e-05
	1.833591228190129e-05
	1.635030982401705e-05
	2.593055358762891e-07
	0.000000000000000e+00
 156	1.559999999999997e-10
	1.456726919268118e-05
	1.993210788810360e-05
	1.569242921370015e-05
	-2.448032240790225e-06
	0.000000000000000e+00
 157	1.569999999999997e-10
	1.722686817971524e-05
	2.028458386563570e-05
	1.370446120286727e-05
	-2.918071402717660e-06
	0.000000000000000e+00
 158	1.579999999999997e-10
	1.831741872199014e-05
	1.943958335255045e-05
	1.078999682266647e-05
	-8.778932497514242e-07
	0.000000000000000e+00
 159	1.589999999999997e-10
	1.765289681491451e-05
	1.746571098744573e-05
	7.587421129294060e-06
	3.349443362353150e-06
	0.000000000000000e+00
 160	1.599999999999997e-10
	1.527565338045324e-05
	1.447336509474304e-05
	4.829973009097536e-06
	8.926452271449389e-06
	0.000000000000000e+00
 161	1.609999999999997e-10
	1.144777815129945e-05
	1.064920822553128e-05
	3.161691660808880e-06
	1.470325910254542e-05
	0.000000000000000e+00
 162	1.619999999999997e-10
	6.609914122618616e-06
	6.285615345522675e-06
	2.960108491679405e-06
	1.948501539974916e-05
	0.000000000000000e+00
 163	1.629999999999997e-10
	1.318726516348675e-06
	1.784878934447160e-06
	4.217420307129375e-06
	2.229563987920019e-05
	0.000000000000000e+00
 164	1.639999999999997e-10
	-3.824554813463079e-06
	-2.374428086840348e-06
	6.517546406958507e-06
	2.257377421471087e-05
	0.000000000000000e+00
 165	1.649999999999997e-10
	-8.244383875831350e-06
	-5.708598902808581e-06
	9.120712873784364e-06
	2.025861154865735e-05
	0.000000000000000e+00
 166	1.659999999999997e-10
	-1.145358575563683e-05
	-7.823076260155681e-06
	1.113728490370621e-05
	1.575541880943960e-05
	0.000000000000000e+00
 167	1.669999999999997e-10
	-1.310530323377961e-05
	-8.505031699366237e-06
	1.174724543706233e-05
	9.803129189950713e-06
	0.000000000000000e+00
 168	1.679999999999997e-10
	-1.303238549451243e-05
	-7.786280906257891e-06
	1.040857508896664e-05
	3.288949121515573e-06
	0.000000000000000e+00
 169	1.689999999999997e-10
	-1.127200036727613e-05
	-5.954408633547114e-06
	7.000761786627048e-06
	-2.938549556358442e-06
	0.000000000000000e+00
 170	1.699999999999997e-10
	-8.072044777633482e-06
	-3.503414495604139e-06
	1.867598297033738e-06
	-8.215140304418596e-06
	0.000000000000000e+00
 171	1.709999999999997e-10
	-3.875153741904335e-06
	-1.032197066988667e-06
	-4.249679398032079e-06
	-1.214094074143543e-05
	0.000000000000000e+00
 172	1.719999999999997e-10
	7.232137520073743e-07
	8.855532688551982e-07
	-1.037040839854150e-05
	-1.459069862451478e-05
	0.000000000000000e+00
 173	1.729999999999997e-10
	5.043413602613674e-06
	1.827680724917708e-06
	-1.548445458063135e-05
	-1.566755623746081e-05
	0.000000000000000e+00
 174	1.739999999999997e-10
	8.412960644097271e-06
	1.613983700693472e-06
	-1.876483989029864e-05
	-1.562398218613683e-05
	0.000000000000000e+00
 175	1.749999999999997e-10
	1.027031125170280e-05
	3.377918284770131e-07
	-1.973517691493704e-05
	-1.477607626060389e-05
	0.000000000000000e+00
 176	1.759999999999997e-10
	1.026475063889697e-05
	-1.668723669380156e-06
	-1.835596617873149e-05
	-1.343263441340230e-05
	0.000000000000000e+00
 177	1.769999999999997e-10
	8.332462569843104e-06
	-3.925470450763868e-06
	-1.501387519085226e-05
	-1.185066139939363e-05
	0.000000000000000e+00
 178	1.779999999999997e-10
	4.729832790805374e-06
	-5.927012558890062e-06
	-1.042174097713717e-05
	-1.021812330235179e-05
	0.000000000000000e+00
 179	1.789999999999997e-10
	1.130040157957285e-08
	-7.264560674217622e-06
	-5.457713937496744e-06
	-8.656370222265245e-06
	0.000000000000000e+00
 180	1.799999999999997e-10
	-5.050490557835432e-06
	-7.716264115599744e-06
	-9.837477358047603e-07
	-7.231251493367261e-06
	0.000000000000000e+00
 181	1.809999999999997e-10
	-9.592266557462017e-06
	-7.284131598931495e-06
	2.315987987651271e-06
	-5.963765275680856e-06
	0.000000000000000e+00
 182	1.819999999999997e-10
	-1.281413839279609e-05
	-6.170920156928956e-06
	4.045647338664632e-06
	-4.836342659456148e-06
	0.000000000000000e+00
 183	1.829999999999997e-10
	-1.413082927118074e-05
	-4.706675184632759e-06
	4.141237370072082e-06
	-3.796635773187671e-06
	0.000000000000000e+00
 184	1.839999999999996e-10
	-1.328857388914546e-05
	-3.247684707127203e-06
	2.847432675069898e-06
	-2.764186946320923e-06
	0.000000000000000e+00
 185	1.849999999999996e-10
	-1.042103670684169e-05
	-2.076854010644796e-06
	6.414194234695294e-07
	-1.645088362079740e-06
	0.000000000000000e+00
 186	1.859999999999996e-10
	-6.029559992643723e-06
	-1.332452783907717e-06
	-1.874448059626615e-06
	-3.559518576513509e-07
	0.000000000000000e+00
 187	1.869999999999996e-10
	-8.894439421231564e-07
	-9.828483168880409e-07
	-4.087599496370299e-06
	1.147002156917874e-06
	0.000000000000000e+00
 188	1.879999999999996e-10
	4.099598146203497e-06
	-8.512335292215704e-07
	-5.477663115892104e-06
	2.842598583309791e-06
	0.000000000000000e+00
 189	1.889999999999996e-10
	8.088362837085560e-06
	-6.804863782569870e-07
	-5.692611692374291e-06
	4.633502958282472e-06
	0.000000000000000e+00
 190	1.899999999999996e-10
	1.044240581243674e-05
	-2.179475054476236e-07
	-4.591903496435179e-06
	6.356828573186772e-06
	0.000000000000000e+00
 191	1.909999999999996e-10
	1.086155022340497e-05
	7.043484661019292e-07
	-2.255744995595557e-06
	7.817747069681321e-06
	0.000000000000000e+00
 192	1.919999999999996e-10
	9.429850697421602e-06
	2.115840270346383e-06
	1.036387629886280e-06
	8.839131123106779e-06
	0.000000000000000e+00
 193	1.929999999999996e-10
	6.586144504680979e-06
	3.893515494372648e-06
	4.852553470250879e-06
	9.313355916679389e-06
	0.000000000000000e+00
 194	1.939999999999996e-10
	3.022696787956404e-06
	5.789948376883067e-06
	8.673854071501208e-06
	9.239513567829259e-06
	0.000000000000000e+00
 195	1.949999999999996e-10
	-4.650230595652240e-07
	7.494078107552010e-06
	1.197103808967034e-05
	8.731972565748895e-06
	0.000000000000000e+00
 196	1.959999999999996e-10
	-3.144504632963263e-06
	8.707408365506364e-06
	1.428329357872618e-05
	7.994059400329389e-06
	0.000000000000000e+00
 197	1.969999999999996e-10
	-4.493098858611285e-06
	9.215293278417852e-06
	1.528883492101289e-05
	7.261401177862854e-06
	0.000000000000000e+00
 198	1.979999999999996e-10
	-4.295789244919525e-06
	8.935446554043985e-06
	1.485614263889154e-05
	6.729749709389456e-06
	0.000000000000000e+00
 199	1.989999999999996e-10
	-2.675387658772133e-06
	7.932713134369770e-06
	1.306590778782159e-05
	6.488488185176286e-06
	0.000000000000000e+00
 200	1.999999999999996e-10
	-5.166260498525861e-08
	6.398347852118114e-06
	1.019758627562427e-05
	6.481172952567989e-06
	0.000000000000000e+00
 201	2.009999999999996e-10
	2.958926003260090e-06
	4.600986256131248e-06
	6.680648629347697e-06
	6.507920921214459e-06
	0.000000000000000e+00
 202	2.019999999999996e-10
	5.679217651074788e-06
	2.822897273170320e-06
	3.017788522097969e-06
	6.272834849541108e-06
	0.000000000000000e+00
 203	2.029999999999996e-10
	7.513085176077445e-06
	1.297604592101811e-06
	-3.062398589503510e-07
	5.466258036872968e-06
	0.000000000000000e+00
 204	2.039999999999996e-10
	8.063303052745883e-06
	1.633467484448396e-07
	-2.912469379779212e-06
	3.860490302758385e-06
	0.000000000000000e+00
 205	2.049999999999996e-10
	7.202510555232316e-06
	-5.580478594453159e-07
	-4.594087593543561e-06
	1.392189866944061e-06
	0.000000000000000e+00
 206	2.059999999999996e-10
	5.085302282484010e-06
	-9.539525432358864e-07
	-5.346732785575820e-06
	-1.793115500027505e-06
	0.000000000000000e+00
 207	2.069999999999996e-10
	2.102479418507204e-06
	-1.189164349153246e-06
	-5.355428074509820e-06
	-5.349604953738757e-06
	0.000000000000000e+00
 208	2.079999999999996e-10