Title: CKT2
Date: Thu Oct 19 17:12:00 2017
Plotname: Transient analysis
Flags: real
No. Variables: 3
No. Points: 1001    
Command: version 4.3.1
Variables:
 0 time S
 1 v(5) V
 2 v(6) V
Values:
 0	0.000000000000000e+00
	3.009746317290531e-07
	0.000000000000000e+00
 1	1.000000000000000e-12
	3.374295971999109e-05
	1.451526746356769e-05
 2	2.000000000000000e-12
	3.186466783245100e-05
	9.289569581612768e-06
 3	3.000000000000000e-12
	2.321674542310235e-05
	-5.236486526164859e-06
 4	4.000000000000000e-12
	1.559344533860159e-05
	-1.660701036979720e-05
 5	5.000000000000000e-12
	9.850368105022264e-06
	-2.351373051769762e-05
 6	5.999999999999999e-12
	5.847309230790649e-06
	-2.762948607294681e-05
 7	6.999999999999999e-12
	3.221942399921077e-06
	-3.004401732202765e-05
 8	8.000000000000000e-12
	1.423025078685510e-06
	-3.154339671962373e-05
 9	9.000000000000000e-12
	1.929144650732253e-07
	-3.242756389183384e-05
 10	9.999999999999999e-12
	-6.433122424708893e-07
	-3.288688575271110e-05
 11	1.100000000000000e-11
	-1.183154839289148e-06
	-3.302517337395082e-05
 12	1.200000000000000e-11
	-1.550910647056121e-06
	-3.297485266615562e-05
 13	1.300000000000000e-11
	-1.796779776111629e-06
	-3.278773636289673e-05
 14	1.400000000000000e-11
	-1.956137555441440e-06
	-3.249918209233884e-05
 15	1.500000000000000e-11
	-2.047537981675990e-06
	-3.212421831997816e-05
 16	1.600000000000000e-11
	-2.098156603296218e-06
	-3.169068061899265e-05
 17	1.700000000000000e-11
	-2.120000714910087e-06
	-3.120943247534737e-05
 18	1.800000000000000e-11
	-2.121136638165292e-06
	-3.068736414853592e-05
 19	1.900000000000000e-11
	-2.105978308905939e-06
	-3.012521002505507e-05
 20	2.000000000000000e-11
	-2.080271693145769e-06
	-2.952977449335479e-05
 21	2.100000000000000e-11
	-2.047137537937825e-06
	-2.890453974955179e-05
 22	2.200000000000000e-11
	-2.008428554432851e-06
	-2.825110412153205e-05
 23	2.300000000000000e-11
	-1.965141344742650e-06
	-2.756809883244129e-05
 24	2.400000000000000e-11
	-1.918488980812451e-06
	-2.685764189072981e-05
 25	2.500000000000000e-11
	-1.869323081812366e-06
	-2.612218026040973e-05
 26	2.600000000000000e-11
	-1.818075739612351e-06
	-2.536239932851699e-05
 27	2.700000000000000e-11
	-1.764945766171953e-06
	-2.457721340206253e-05
 28	2.800000000000000e-11
	-1.710174706154180e-06
	-2.376705193743278e-05
 29	2.900000000000000e-11
	-1.654064303741919e-06
	-2.293457934548677e-05
 30	3.000000000000000e-11
	-1.596729863887093e-06
	-2.208039697548711e-05
 31	3.100000000000000e-11
	-1.538208700081185e-06
	-2.120410393013768e-05
 32	3.200000000000001e-11
	-1.478516602855188e-06
	-2.030515290749427e-05
 33	3.300000000000001e-11
	-1.417835867563955e-06
	-1.938656016314178e-05
 34	3.400000000000001e-11
	-1.356216022019947e-06
	-1.844899756038479e-05
 35	3.500000000000001e-11
	-1.293681351024024e-06
	-1.749273083015909e-05
 36	3.600000000000002e-11
	-1.230184559314292e-06
	-1.651661326122633e-05
 37	3.700000000000002e-11
	-1.165887922775630e-06
	-1.552389097525892e-05
 38	3.800000000000002e-11
	-1.100831541022366e-06
	-1.451533780712332e-05
 39	3.900000000000003e-11
	-1.035055657065553e-06
	-1.349175245065454e-05
 40	4.000000000000003e-11
	-9.684978474614822e-07
	-1.245179630908326e-05
 41	4.100000000000003e-11
	-9.013141519729922e-07
	-1.139871684512383e-05
 42	4.200000000000004e-11
	-8.335476488497962e-07
	-1.033340650854269e-05
 43	4.300000000000004e-11
	-7.652419569030358e-07
	-9.256774472183229e-06
 44	4.400000000000004e-11
	-6.963803675833907e-07
	-8.168468428717226e-06
 45	4.500000000000004e-11
	-6.270700934746588e-07
	-7.070745290349718e-06
 46	4.600000000000005e-11
	-5.573703516660447e-07
	-5.964860246361689e-06
 47	4.700000000000005e-11
	-4.873285973012762e-07
	-4.851828545316889e-06
 48	4.800000000000005e-11
	-4.169658287792553e-07
	-3.732129098826518e-06
 49	4.900000000000006e-11
	-3.463571468513229e-07
	-2.607379808109797e-06
 50	5.000000000000006e-11
	-2.755663551260025e-07
	-1.478967168844721e-06
 51	5.100000000000006e-11
	-2.046430798476944e-07
	-3.479947182094613e-07
 52	5.200000000000007e-11
	-1.336345863393272e-07
	7.844381166384063e-07
 53	5.300000000000007e-11
	-6.260176657954748e-08
	1.916949768010414e-06
 54	5.400000000000007e-11
	8.400065635381729e-09
	3.048299383959069e-06
 55	5.500000000000008e-11
	7.932128648573947e-08
	4.177329585854076e-06
 56	5.600000000000008e-11
	1.501013112538556e-07
	5.302585371725513e-06
 57	5.700000000000008e-11
	2.206746139008731e-07
	6.422487867867269e-06
 58	5.800000000000008e-11
	2.910071830922459e-07
	7.536250299594401e-06
 59	5.900000000000008e-11
	3.610513393636218e-07
	8.642711548135845e-06
 60	6.000000000000008e-11
	4.307460084776815e-07
	9.740364510526624e-06
 61	6.100000000000007e-11
	5.000023784678585e-07
	1.082699949998852e-05
 62	6.200000000000007e-11
	5.688189948432359e-07
	1.190259500075982e-05
 63	6.300000000000007e-11
	6.371514569044235e-07
	1.296604461828188e-05
 64	6.400000000000006e-11
	7.049497664875906e-07
	1.401610053783503e-05
 65	6.500000000000006e-11
	7.720844356006722e-07
	1.504952506487441e-05
 66	6.600000000000006e-11
	8.385956701599159e-07
	1.606733724155649e-05
 67	6.700000000000005e-11
	9.044430413533570e-07
	1.706853993997839e-05
 68	6.800000000000005e-11
	9.695870780241298e-07
	1.805216721306805e-05
 69	6.900000000000005e-11
	1.033873396171413e-06
	1.901440051911704e-05
 70	7.000000000000004e-11
	1.097359752457278e-06
	1.995672637765864e-05
 71	7.100000000000004e-11
	1.160020349153336e-06
	2.087855401895874e-05
 72	7.200000000000004e-11
	1.221820006858491e-06
	2.177907061367983e-05
 73	7.300000000000003e-11
	1.282609774210297e-06
	2.265467887873477e-05
 74	7.400000000000003e-11
	1.342427121833176e-06
	2.350639966602403e-05
 75	7.500000000000003e-11
	1.401275402788859e-06
	2.433441249589945e-05
 76	7.600000000000002e-11
	1.459123868609045e-06
	2.513806771958512e-05
 77	7.700000000000002e-11
	1.515838533830153e-06
	2.591423558943078e-05
 78	7.800000000000001e-11
	1.571420868049706e-06
	2.666309476928638e-05
 79	7.900000000000001e-11
	1.625909967862612e-06
	2.738572366623818e-05
 80	8.000000000000001e-11
	1.679279612599602e-06
	2.808162625769904e-05
 81	8.100000000000000e-11
	1.731418831606088e-06
	2.874831251135078e-05
 82	8.200000000000000e-11
	1.782280140958253e-06
	2.938482877649393e-05
 83	8.300000000000000e-11
	1.831943342611400e-06
	2.999321792600003e-05
 84	8.399999999999999e-11
	1.880386635980038e-06
	3.057311710734502e-05
 85	8.499999999999999e-11
	1.927528354180859e-06
	3.112278580149318e-05
 86	8.599999999999999e-11
	1.973261630233975e-06
	3.163993438946786e-05
 87	8.699999999999998e-11
	2.017710123921445e-06
	3.212759113382279e-05
 88	8.799999999999998e-11
	2.060855917707271e-06
	3.258550377912948e-05
 89	8.899999999999998e-11
	2.102650983767123e-06
	3.301274583085210e-05
 90	8.999999999999997e-11
	2.142920618341622e-06
	3.340556470811025e-05
 91	9.099999999999997e-11
	2.181833805015868e-06
	3.376796703202813e-05
 92	9.199999999999997e-11
	2.219375413222837e-06
	3.409979197126403e-05
 93	9.299999999999996e-11
	2.255530737935610e-06
	3.440089747242145e-05
 94	9.399999999999996e-11
	2.290058419461716e-06
	3.466619403891100e-05
 95	9.499999999999996e-11
	2.323164538506597e-06
	3.490045272317978e-05
 96	9.599999999999995e-11
	2.354837982405494e-06
	3.510365320344634e-05
 97	9.699999999999995e-11
	2.385064758353344e-06
	3.527572835557390e-05
 98	9.799999999999995e-11
	2.413631072351225e-06
	3.541240277187379e-05
 99	9.899999999999994e-11
	2.440678415395124e-06
	3.551701197612486e-05
 100	9.999999999999994e-11
	2.466231629692613e-06
	3.559038729671928e-05
 101	1.009999999999999e-10
	2.490275304650104e-06
	3.563252796706013e-05
 102	1.019999999999999e-10
	2.512623282333355e-06
	3.564000942463727e-05
 103	1.029999999999999e-10
	2.533344005320659e-06
	3.561467709415783e-05
 104	1.039999999999999e-10
	2.552499240083398e-06
	3.555820871955041e-05
 105	1.049999999999999e-10
	2.570069782125678e-06
	3.547066406962620e-05
 106	1.059999999999999e-10
	2.585896611301893e-06
	3.534948509355309e-05
 107	1.069999999999999e-10
	2.599965603552946e-06
	3.519501852591204e-05
 108	1.079999999999999e-10
	2.612377433040927e-06
	3.500976522430686e-05
 109	1.089999999999999e-10
	2.623106589222778e-06
	3.479384120722944e-05
 110	1.099999999999999e-10
	2.632021234602000e-06
	3.454555128729616e-05
 111	1.109999999999999e-10
	2.639012127911699e-06
	3.426377496060146e-05
 112	1.119999999999999e-10
	2.644223035768369e-06
	3.395179600321662e-05
 113	1.129999999999999e-10
	2.647619592059802e-06
	3.360978334855495e-05
 114	1.139999999999999e-10
	2.649098926748668e-06
	3.323688325741921e-05
 115	1.149999999999999e-10
	2.648439036443648e-06
	3.283057583583134e-05
 116	1.159999999999999e-10
	2.645834414207162e-06
	3.239487201508947e-05
 117	1.169999999999999e-10
	2.641239405327302e-06
	3.192999137543976e-05
 118	1.179999999999999e-10
	2.634584925856387e-06
	3.143588418082795e-05
 119	1.189999999999999e-10
	2.625511594454797e-06
	3.090873373570580e-05
 120	1.199999999999999e-10
	2.614277024825122e-06
	3.035320825100551e-05
 121	1.209999999999999e-10
	2.600822276480756e-06
	2.976957758207896e-05
 122	1.219999999999999e-10
	2.585085179733973e-06
	2.915812336284324e-05
 123	1.229999999999999e-10
	2.566644541387479e-06
	2.851513332338149e-05
 124	1.239999999999999e-10
	2.545731215094506e-06
	2.784458720973371e-05
 125	1.249999999999999e-10
	2.522308164366846e-06
	2.714722918055466e-05
 126	1.259999999999998e-10
	2.496299059707657e-06
	2.642339567638956e-05
 127	1.269999999999998e-10
	2.467288737639913e-06
	2.567029410226587e-05
 128	1.279999999999998e-10
	2.435398542124130e-06
	2.489048405023879e-05
 129	1.289999999999998e-10
	2.400650733805426e-06
	2.408540461271427e-05
 130	1.299999999999998e-10
	2.362956870807819e-06
	2.325545771029671e-05
 131	1.309999999999998e-10
	2.321922612047090e-06
	2.239873726061929e-05
 132	1.319999999999998e-10
	2.277533427865944e-06
	2.151653723455937e-05
 133	1.329999999999998e-10
	2.229895894707912e-06
	2.061091989934493e-05
 134	1.339999999999998e-10
	2.178916102164967e-06
	1.968237294211914e-05
 135	1.349999999999998e-10
	2.124246523748565e-06
	1.872983880546298e-05
 136	1.359999999999998e-10
	2.065710209848044e-06
	1.775355831111670e-05
 137	1.369999999999998e-10
	2.003531290507516e-06
	1.675612871858759e-05
 138	1.379999999999998e-10
	1.937624289807195e-06
	1.573815644182761e-05
 139	1.389999999999998e-10
	1.867726784585395e-06
	1.469938573000467e-05
 140	1.399999999999998e-10
	1.793484056805879e-06
	1.363929910714229e-05
 141	1.409999999999998e-10
	1.715275807885655e-06
	1.256091145420907e-05
 142	1.419999999999998e-10
	1.633048792248264e-06
	1.146499470646560e-05
 143	1.429999999999998e-10
	1.546673157504468e-06
	1.035202604960603e-05
 144	1.439999999999998e-10
	1.455631998764076e-06
	9.221141557177359e-06
 145	1.449999999999998e-10
	1.360493192359974e-06
	8.075602297389351e-06
 146	1.459999999999998e-10
	1.261270176934508e-06
	6.916401980248734e-06
 147	1.469999999999998e-10
	1.157997350449765e-06
	5.744592898081648e-06
 148	1.479999999999998e-10
	1.050110647331712e-06
	4.559648260607066e-06
 149	1.489999999999998e-10
	9.383312872077515e-07
	3.364692365927037e-06
 150	1.499999999999998e-10
	8.227939506707485e-07
	2.161030606370779e-06
 151	1.509999999999998e-10
	7.036494426794140e-07
	9.499954248378374e-07
 152	1.519999999999998e-10
	5.806511478050123e-07
	-2.676129038862126e-07
 153	1.529999999999998e-10
	4.544155045143249e-07
	-1.489467657342528e-06
 154	1.539999999999998e-10
	3.253013547403671e-07
	-2.713851876074579e-06
 155	1.549999999999997e-10
	1.936049795106714e-07
	-3.939152142008580e-06
 156	1.559999999999997e-10
	5.945336229465301e-08
	-5.163420750594065e-06
 157	1.569999999999997e-10
	-7.659384794721612e-08
	-6.384665308975845e-06
 158	1.579999999999997e-10
	-2.140122645539197e-07
	-7.601164362484464e-06
 159	1.589999999999997e-10
	-3.523664161188946e-07
	-8.811106658495911e-06
 160	1.599999999999997e-10
	-4.911920420339677e-07
	-1.001179101314956e-05
 161	1.609999999999997e-10
	-6.299010184700963e-07
	-1.120103087316412e-05
 162	1.619999999999997e-10
	-7.679597608190555e-07
	-1.237767509402320e-05
 163	1.629999999999997e-10
	-9.048551878637006e-07
	-1.353989898425497e-05
 164	1.639999999999997e-10
	-1.039939775927864e-06
	-1.468484740731115e-05
 165	1.649999999999997e-10
	-1.172503014251305e-06
	-1.580962812659227e-05
 166	1.659999999999997e-10
	-1.302233615769563e-06
	-1.691430067996530e-05
 167	1.669999999999997e-10
	-1.428652516032634e-06
	-1.799727194978072e-05
 168	1.679999999999997e-10
	-1.551164442376508e-06
	-1.905620529498846e-05
 169	1.689999999999997e-10
	-1.668878490553124e-06
	-2.008710221817509e-05
 170	1.699999999999997e-10
	-1.781924815456531e-06
	-2.109173593892140e-05
 171	1.709999999999997e-10
	-1.889976967575892e-06
	-2.206894921042359e-05
 172	1.719999999999997e-10
	-1.992709295319314e-06
	-2.301745315256789e-05
 173	1.729999999999997e-10
	-2.089060058223647e-06
	-2.393190338452221e-05
 174	1.739999999999997e-10
	-2.179692999129367e-06
	-2.481596001584714e-05
 175	1.749999999999997e-10
	-2.264499167189593e-06
	-2.566896547087396e-05
 176	1.759999999999997e-10
	-2.343419518023427e-06
	-2.649036813215782e-05
 177	1.769999999999997e-10
	-2.415588344771652e-06
	-2.727499109332398e-05
 178	1.779999999999997e-10
	-2.481815280737449e-06
	-2.802658232540061e-05
 179	1.789999999999997e-10
	-2.542287237400084e-06
	-2.874543002474014e-05
 180	1.799999999999997e-10
	-2.597127090056167e-06
	-2.943135456486293e-05
 181	1.809999999999997e-10
	-2.645848916444490e-06
	-3.008024335791095e-05
 182	1.819999999999997e-10
	-2.689095783899989e-06
	-3.069463234521386e-05
 183	1.829999999999997e-10
	-2.727299100158726e-06
	-3.127589504601346e-05
 184	1.839999999999996e-10
	-2.760675077283861e-06
	-3.182405318791823e-05
 185	1.849999999999996e-10
	-2.789031910072091e-06
	-3.233600266446052e-05
 186	1.859999999999996e-10
	-2.812774098040251e-06
	-3.281276889617843e-05
 187	1.869999999999996e-10
	-2.832435678586610e-06
	-3.325664799825431e-05
 188	1.879999999999996e-10
	-2.848241677879712e-06
	-3.366773091489425e-05
 189	1.889999999999996e-10
	-2.860170747246763e-06
	-3.404381836145635e-05
 190	1.899999999999996e-10
	-2.868399484781329e-06
	-3.438432204797222e-05
 191	1.909999999999996e-10
	-2.873454931069966e-06
	-3.469234949477064e-05
 192	1.919999999999996e-10
	-2.875522280309116e-06
	-3.496799868887202e-05
 193	1.929999999999996e-10
	-2.874655277187275e-06
	-3.520990900447330e-05
 194	1.939999999999996e-10
	-2.870851717988901e-06
	-3.541588070985345e-05
 195	1.949999999999996e-10
	-2.864580982104734e-06
	-3.558978909965348e-05
 196	1.959999999999996e-10
	-2.855975460656868e-06
	-3.573172968601052e-05
 197	1.969999999999996e-10
	-2.845113842905142e-06
	-3.584115764817912e-05
 198	1.979999999999996e-10
	-2.831866318087966e-06
	-3.591430965515171e-05
 199	1.989999999999996e-10
	-2.816639595074407e-06
	-3.595581973166448e-05
 200	1.999999999999996e-10
	-2.799520394883843e-06
	-3.596579491578847e-05
 201	2.009999999999996e-10
	-2.780586800867125e-06
	-3.594434751090588e-05
 202	2.019999999999996e-10
	-2.759644077378700e-06
	-3.588668337101631e-05
 203	2.029999999999996e-10
	-2.737027253684180e-06
	-3.579772433766653e-05
 204	2.039999999999996e-10
	-2.712798990932817e-06
	-3.567776092949442e-05
 205	2.049999999999996e-10
	-2.687007748269889e-06
	-3.552693900685089e-05
 206	2.059999999999996e-10
	-2.659500870426024e-06
	-3.534136988738981e-05
 207	2.069999999999996e-10
	-2.630477558281541e-06
	-3.512439243658496e-05
 208	2.079999999999996e-10
	-2.600016669229166e-06
	-3.487710910135627e-05
 209	2.089999999999996e-10
	-2.568148263001994e-06
	-3.459971326032461e-05
 210	2.099999999999996e-10
	-2.534753990442942e-06
	-3.428922470984770e-05
 211	2.109999999999996e-10
	-2.499934256758383e-06
	-3.394746595406711e-05
 212	2.119999999999996e-10
	-2.463786454402708e-06
	-3.357632056745791e-05
 213	2.129999999999995e-10
	-2.426330368161974e-06
	-3.317603945659926e-05
 214	2.139999999999995e-10
	-2.387479696983709e-06
	-3.274453796182001e-05
 215	2.149999999999995e-10
	-2.347257441254010e-06
	-3.228221557116559e-05
 216	2.159999999999995e-10
	-2.305782612669414e-06
	-3.179168470964438e-05
 217	2.169999999999995e-10
	-2.263070358532622e-06
	-3.127326132753001e-05
 218	2.179999999999995e-10
	-2.219066405182919e-06
	-3.072572412972407e-05
 219	2.189999999999995e-10
	-2.173729701555920e-06
	-3.014817981656201e-05
 220	2.199999999999995e-10
	-2.127203062016946e-06
	-2.954389413860636e-05
 221	2.209999999999995e-10
	-2.079500993095481e-06
	-2.891325461378475e-05
 222	2.219999999999995e-10
	-2.030601667177883e-06
	-2.825584997425619e-05
 223	2.229999999999995e-10
	-1.980410421961001e-06
	-2.756966902956049e-05
 224	2.239999999999995e-10
	-1.929094236059291e-06
	-2.685853059884476e-05
 225	2.249999999999995e-10
	-1.876669919616821e-06
	-2.612290045410456e-05
 226	2.259999999999995e-10
	-1.823147739204388e-06
	-2.536310107838479e-05
 227	2.269999999999995e-10
	-1.768390275802062e-06
	-2.457622990397726e-05
 228	2.279999999999995e-10
	-1.712586501483191e-06
	-2.376653172895692e-05
 229	2.289999999999995e-10
	-1.655757704316215e-06
	-2.293455812779073e-05
 230	2.299999999999995e-10
	-1.597926429650921e-06
	-2.208088148770901e-05
 231	2.309999999999995e-10
	-1.538979038059828e-06
	-2.120313962832488e-05
 232	2.319999999999995e-10
	-1.479068007340559e-06
	-2.030469955793326e-05
 233	2.329999999999995e-10
	-1.418238288619647e-06
	-1.938658931339545e-05
 234	2.339999999999995e-10
	-1.356518588782010e-06
	-1.844947756388444e-05
 235	2.349999999999995e-10
	-1.293840572539112e-06
	-1.749196240869127e-05
 236	2.359999999999995e-10
	-1.230306803410565e-06
	-1.651627214216563e-05
 237	2.369999999999995e-10
	-1.165988091374553e-06
	-1.552394272130103e-05
 238	2.379999999999995e-10
	-1.100919771822180e-06
	-1.451574734583152e-05
 239	2.389999999999995e-10
	-1.035075424761090e-06
	-1.349114847773978e-05
 240	2.399999999999995e-10
	-9.685193713708189e-07
	-1.245152135366524e-05
 241	2.409999999999995e-10
	-9.013400538582318e-07
	-1.139874337200125e-05
 242	2.419999999999995e-10
	-8.335789953356058e-07
	-1.033369753411146e-05
 243	2.429999999999995e-10
	-7.652450821716215e-07
	-9.256578136105930e-06
 244	2.439999999999995e-10
	-6.963792077517981e-07
	-8.168255602595268e-06
 245	2.449999999999995e-10
	-6.270763087322262e-07
	-7.070740231075299e-06
 246	2.459999999999995e-10
	-5.573827675904015e-07
	-5.965022957363687e-06
 247	2.469999999999995e-10
	-4.873330705890053e-07
	-4.851852834001923e-06
 248	2.479999999999995e-10
	-4.169621040224083e-07
	-3.732002760214069e-06
 249	2.489999999999995e-10
	-3.463580222881982e-07
	-2.607361394551975e-06
 250	2.499999999999994e-10
	-2.755700606155256e-07
	-1.479013574980018e-06
 251	2.509999999999994e-10
	-2.046463163666102e-07
	-3.480367681873100e-07
 252	2.519999999999994e-10
	-1.336345527991562e-07
	7.844415346222181e-07
 253	2.529999999999994e-10
	-6.260206704920769e-08
	1.916951561694913e-06
 254	2.539999999999994e-10
	8.401337317938183e-09
	3.048344812483214e-06
 255	2.549999999999994e-10
	7.932603572560000e-08
	4.177464255070359e-06
 256	2.559999999999994e-10
	1.500950069060135e-07
	5.302427272393657e-06
 257	2.569999999999994e-10
	2.206725506716870e-07
	6.422438436560328e-06
 258	2.579999999999994e-10
	2.910112337632863e-07
	7.536355200982730e-06
 259	2.589999999999994e-10
	3.610633476914845e-07
	8.643016147328876e-06
 260	2.599999999999994e-10
	4.307318877596697e-07
	9.740011040108801e-06
 261	2.609999999999994e-10
	4.999969685555651e-07
	1.082686467292636e-05
 262	2.619999999999994e-10
	5.688240564553814e-07
	1.190272270184991e-05
 263	2.629999999999994e-10
	6.371687077796809e-07
	1.296647774672543e-05
 264	2.639999999999994e-10
	7.049268900757068e-07
	1.401552768577648e-05
 265	2.649999999999994e-10
	7.720744557534366e-07
	1.504927537417215e-05
 266	2.659999999999994e-10
	8.386001991095343e-07
	1.606745067846354e-05
 267	2.669999999999994e-10
	9.044636425338575e-07
	1.706905491921082e-05
 268	2.679999999999994e-10
	9.695652175761755e-07
	1.805162236410583e-05
 269	2.689999999999994e-10
	1.033857879613880e-06
	1.901401424719952e-05
 270	2.699999999999994e-10
	1.097362406343642e-06
	1.995679197618904e-05
 271	2.709999999999994e-10
	1.160042571696098e-06
	2.087910406208029e-05
 272	2.719999999999994e-10
	1.221813182387934e-06
	2.177890313895681e-05
 273	2.729999999999994e-10
	1.282587976910993e-06
	2.265414316589545e-05
 274	2.739999999999994e-10
	1.342426759086059e-06
	2.350639016728958e-05
 275	2.749999999999994e-10
	1.401297701748831e-06
	2.433495546250373e-05
 276	2.759999999999994e-10
	1.459138436473503e-06
	2.513842210424881e-05
 277	2.769999999999994e-10
	1.515809928603945e-06
	2.591354555525804e-05
 278	2.779999999999994e-10
	1.571416550807060e-06
	2.666299033023693e-05
 279	2.789999999999993e-10
	1.625930990497597e-06
	2.738622503975952e-05
 280	2.799999999999993e-10
	1.679320679039471e-06
	2.808260250791464e-05
 281	2.809999999999993e-10
	1.731383105679483e-06
	2.874746918965901e-05
 282	2.819999999999993e-10
	1.782271138931203e-06
	2.938461649439177e-05
 283	2.829999999999993e-10
	1.831961943669417e-06
	2.999365161543210e-05
 284	2.839999999999993e-10
	1.880433669262032e-06
	3.057421026314166e-05
 285	2.849999999999993e-10
	1.927485377523526e-06
	3.112179399158327e-05
 286	2.859999999999993e-10
	1.973247409697330e-06
	3.163960699711452e-05
 287	2.869999999999993e-10
	2.017725383740218e-06
	3.212793867510367e-05
 288	2.879999999999993e-10
	2.060901341535628e-06
	3.258653558491069e-05
 289	2.889999999999993e-10
	2.102600723925360e-06
	3.301161261129513e-05
 290	2.899999999999993e-10
	2.142900795774942e-06
	3.340511921821728e-05
 291	2.909999999999993e-10
	2.181845027553754e-06
	3.376821613509720e-05
 292	2.919999999999993e-10
	2.219418264269564e-06
	3.410074154108304e-05
 293	2.929999999999993e-10
	2.255475987340998e-06
	3.439969459595383e-05
 294	2.939999999999993e-10
	2.290032670891109e-06
	3.466563076031434e-05
 295	2.949999999999993e-10
	2.323171209506068e-06
	3.490059589212325e-05
 296	2.959999999999993e-10
	2.354877621307159e-06
	3.510450574635247e-05
 297	2.969999999999993e-10
	2.385039217750804e-06
	3.527518655266432e-05
 298	2.979999999999993e-10
	2.413599005056976e-06
	3.541172474524033e-05
 299	2.989999999999993e-10
	2.440680116595088e-06
	3.551704550731612e-05
 300	2.999999999999993e-10
	2.466267692990171e-06
	3.559113270804276e-05
 301	3.009999999999993e-10
	2.490281578461363e-06
	3.563266010231761e-05
 302	3.019999999999993e-10
	2.512584283231794e-06
	3.563922213530446e-05
 303	3.029999999999993e-10
	2.533340293830783e-06
	3.561460044573062e-05
 304	3.039999999999993e-10
	2.552531545279410e-06
	3.555884066310133e-05
 305	3.049999999999993e-10
	2.570111056442962e-06
	3.547146487999263e-05
 306	3.059999999999993e-10
	2.585849684762824e-06
	3.534859630460795e-05
 307	3.069999999999993e-10
	2.599955869333297e-06
	3.519483393157215e-05
 308	3.079999999999992e-10
	2.612405851506460e-06
	3.501028057454022e-05
 309	3.089999999999992e-10
	2.623174210441943e-06
	3.479505160891748e-05
 310	3.099999999999992e-10
	2.631964838121726e-06
	3.454457090541702e-05
 311	3.109999999999992e-10
	2.638995440121268e-06
	3.426348717068118e-05
 312	3.119999999999992e-10
	2.644247346100983e-06
	3.395219448669211e-05
 313	3.129999999999992e-10
	2.647686309315595e-06
	3.361086117756763e-05
 314	3.139999999999992e-10
	2.649030813788593e-06
	3.323582323002135e-05
 315	3.149999999999992e-10
	2.648413988257575e-06
	3.283019193181797e-05
 316	3.159999999999992e-10
	2.645854143783488e-06
	3.239515594179809e-05
 317	3.169999999999992e-10
	2.641305771905566e-06
	3.193093424881039e-05
 318	3.179999999999992e-10
	2.634502017690904e-06
	3.143475850369689e-05
 319	3.189999999999992e-10
	2.625476162911492e-06
	3.090826304016959e-05
 320	3.199999999999992e-10
	2.614291286951472e-06
	3.035338229966773e-05
 321	3.209999999999992e-10
	2.600888614493109e-06
	2.977038553433296e-05
 322	3.219999999999992e-10
	2.585019629929569e-06
	2.915736928377209e-05
 323	3.229999999999992e-10
	2.566595999994881e-06
	2.851458750525907e-05
 324	3.239999999999992e-10
	2.545738559864515e-06
	2.784465830758898e-05
 325	3.249999999999992e-10
	2.522374327620552e-06
	2.714790425486610e-05
 326	3.259999999999992e-10
	2.496282259167528e-06
	2.642324433163323e-05
 327	3.269999999999992e-10
	2.467223701118928e-06
	2.566968765989807e-05
 328	3.279999999999992e-10
	2.435396866879825e-06
	2.489046146723833e-05
 329	3.289999999999992e-10
	2.400715837846873e-06
	2.408595047438305e-05
 330	3.299999999999992e-10
	2.363003542029951e-06
	2.325584372902353e-05
 331	3.309999999999992e-10
	2.321837358483664e-06
	2.239808864790701e-05
 332	3.319999999999992e-10
	2.277520043862054e-06
	2.151643309573275e-05
 333	3.329999999999992e-10
	2.229958055719988e-06
	2.061134161862347e-05
 334	3.339999999999992e-10
	2.179043521684319e-06
	1.968321007193655e-05
 335	3.349999999999992e-10
	2.124137821940935e-06
	1.872917251945215e-05
 336	3.359999999999991e-10
	2.065682234062140e-06
	1.775338880305319e-05
 337	3.369999999999991e-10
	2.003587484224464e-06
	1.675643297866258e-05
 338	3.379999999999991e-10
	1.937767877137237e-06
	1.573890980627991e-05
 339	3.389999999999991e-10
	1.867593511967270e-06
	1.469873561061336e-05
 340	3.399999999999991e-10
	1.793439366997374e-06
	1.363908665359039e-05
 341	3.409999999999991e-10
	1.715322060278256e-06
	1.256110754354466e-05
 342	3.419999999999991e-10
	1.633187783203666e-06
	1.146556794048193e-05
 343	3.429999999999991e-10
	1.546518917382153e-06
	1.035143966137214e-05
 344	3.439999999999991e-10
	1.455570976795198e-06
	9.220918018142900e-06
 345	3.449999999999991e-10
	1.360525403712576e-06
	8.075704248116032e-06
 346	3.459999999999991e-10
	1.261394617453269e-06
	6.916789116224501e-06
 347	3.469999999999991e-10
	1.157847744929418e-06
	5.744175309012186e-06
 348	3.479999999999991e-10
	1.050038682708053e-06
	4.559458526878762e-06
 349	3.489999999999991e-10
	9.383469471626571e-07
	3.364722284746504e-06
 350	3.499999999999991e-10
	8.228918699489111e-07
	2.161229140971537e-06
 351	3.509999999999991e-10
	7.035967193932535e-07
	9.499170675004029e-07
 352	3.519999999999991e-10
	5.805811938807829e-07
	-2.677088771860982e-07
 353	3.529999999999991e-10
	4.544161699057340e-07
	-1.489475944290554e-06
 354	3.539999999999991e-10
	3.253617151650377e-07
	-2.713834526595758e-06
 355	3.549999999999991e-10
	1.936208731114281e-07
	-3.939138897211024e-06
 356	3.559999999999991e-10
	5.940677163599211e-08
	-5.163351003956741e-06
 357	3.569999999999991e-10
	-7.660030301181931e-08
	-6.384664712839596e-06
 358	3.579999999999991e-10
	-2.139950317504798e-07
	-7.601303232017771e-06
 359	3.589999999999991e-10
	-3.523502465755488e-07
	-8.811320869629955e-06
 360	3.599999999999991e-10
	-4.911888875346404e-07
	-1.001148336086116e-05
 361	3.609999999999991e-10
	-6.299003489796516e-07
	-1.120096511930247e-05
 362	3.619999999999991e-10
	-7.679814783614989e-07
	-1.237792322634838e-05
 363	3.629999999999991e-10
	-9.049195163243597e-07
	-1.354053172832468e-05
 364	3.639999999999991e-10
	-1.039864300048126e-06
	-1.468424947768206e-05
 365	3.649999999999990e-10
	-1.172478599453725e-06
	-1.580944330894154e-05
 366	3.659999999999990e-10
	-1.302279547025410e-06
	-1.691459338697769e-05
 367	3.669999999999990e-10
	-1.428786933878735e-06
	-1.799810246652210e-05
 368	3.679999999999990e-10
	-1.551009298445902e-06
	-1.905530406226902e-05
 369	3.689999999999990e-10
	-1.668818755618589e-06
	-2.008676197350477e-05
 370	3.699999999999990e-10
	-1.781974506338381e-06
	-2.109200517186581e-05
 371	3.709999999999990e-10
	-1.890147768832634e-06
	-2.206987056423046e-05
 372	3.719999999999990e-10
	-1.992488985758113e-06
	-2.301627980640491e-05
 373	3.729999999999990e-10
	-2.088964933517732e-06
	-2.393139810327388e-05
 374	3.739999999999990e-10
	-2.179728850587760e-06
	-2.481615188408040e-05
 375	3.749999999999990e-10
	-2.264669172207874e-06
	-2.566987794724362e-05
 376	3.759999999999990e-10
	-2.343264563136801e-06
	-2.648951959003778e-05
 377	3.769999999999990e-10
	-2.415469531351429e-06
	-2.727433381007898e-05
 378	3.779999999999990e-10
	-2.481829163140223e-06
	-2.802666662248310e-05
 379	3.789999999999990e-10
	-2.542429661093348e-06
	-2.874626428768665e-05
 380	3.799999999999990e-10
	-2.597103172433568e-06
	-2.943119772424454e-05
 381	3.809999999999990e-10
	-2.645723360567515e-06
	-3.007945572818094e-05
 382	3.819999999999990e-10
	-2.689089377038943e-06
	-3.069459945704248e-05
 383	3.829999999999990e-10
	-2.727403634481256e-06
	-3.127661671842763e-05
 384	3.839999999999990e-10
	-2.760754673540698e-06
	-3.182461135325003e-05
 385	3.849999999999990e-10
	-2.788913641042188e-06
	-3.233510215815408e-05
 386	3.859999999999990e-10
	-2.812754176441093e-06
	-3.281261988326598e-05
 387	3.869999999999990e-10
	-2.832505190628343e-06
	-3.325724709037805e-05
 388	3.879999999999990e-10
	-2.848382512694358e-06
	-3.366898884183105e-05
 389	3.889999999999990e-10
	-2.860066613814283e-06
	-3.404281402601552e-05
 390	3.899999999999990e-10
	-2.868372773258285e-06
	-3.438406046539344e-05
 391	3.909999999999990e-10
	-2.873498094816475e-06
	-3.469282680558939e-05
 392	3.919999999999990e-10
	-2.875628375101774e-06
	-3.496921107791303e-05
 393	3.929999999999990e-10
	-2.874565608034204e-06
	-3.520880437516412e-05
 394	3.939999999999989e-10
	-2.870822385760710e-06
	-3.541550957320073e-05
 395	3.949999999999989e-10
	-2.864606475109258e-06
	-3.559014771718925e-05
 396	3.959999999999989e-10
	-2.856050871976717e-06
	-3.573281428823875e-05
 397	3.969999999999989e-10
	-2.845035430767771e-06
	-3.583995556831920e-05
 398	3.979999999999989e-10
	-2.831835986597320e-06
	-3.591383193396292e-05
 399	3.989999999999989e-10
	-2.816653675217398e-06
	-3.595606229683894e-05
 400	3.999999999999989e-10
	-2.799575683803935e-06
	-3.596675345124283e-05
 401	4.009999999999989e-10
	-2.780524099232297e-06
	-3.594320724930344e-05
 402	4.019999999999989e-10
	-2.759612832268870e-06
	-3.588610344368840e-05
 403	4.029999999999989e-10
	-2.737033672094691e-06
	-3.579785337436881e-05
 404	4.039999999999989e-10