Title: CKT1
Date: Thu Oct 19 16:09:50 2017
Plotname: Transient analysis
Flags: real
No. Variables: 28
No. Points: 1001    
Command: version 4.3.1
Variables:
 0 time S
 1 l2#branch A
 2 l4#branch A
 3 l5#branch A
 4 l6#branch A
 5 l8#branch A
 6 l10#branch A
 7 l13#branch A
 8 lpi1#branch A
 9 lpj2#branch A
 10 lpj3#branch A
 11 lpj4#branch A
 12 v(1) V
 13 v(2) V
 14 v(3) V
 15 v(4) V
 16 v(5) V
 17 v(6) V
 18 v(7) V
 19 v(8) V
 20 v(9) V
 21 v(10) V
 22 v(11) V
 23 v(12) V
 24 v(13) V
 25 v(15) V
 26 v(16) V
 27 v(17) V
Values:
 0	0.000000000000000e+00
	0.000000000000000e+00
	0.000000000000000e+00
	0.000000000000000e+00
	0.000000000000000e+00
	0.000000000000000e+00
	0.000000000000000e+00
	0.000000000000000e+00
	0.000000000000000e+00
	0.000000000000000e+00
	0.000000000000000e+00
	0.000000000000000e+00
	0.000000000000000e+00
	0.000000000000000e+00
	0.000000000000000e+00
	0.000000000000000e+00
	0.000000000000000e+00
	0.000000000000000e+00
	0.000000000000000e+00
	0.000000000000000e+00
	0.000000000000000e+00
	0.000000000000000e+00
	0.000000000000000e+00
	0.000000000000000e+00
	0.000000000000000e+00
	0.000000000000000e+00
	0.000000000000000e+00
	0.000000000000000e+00
 1	1.000000000000000e-12
	-9.204826387886000e-07
	-4.998822973464116e-07
	-4.206003414421884e-07
	-1.015842398855146e-07
	-6.854451409044067e-08
	-3.982980574608972e-07
	-1.015842398855146e-07
	0.000000000000000e+00
	-7.503538848126445e-07
	-3.520558273517474e-07
	-1.015842398855146e-07
	-2.972373028727770e-06
	-2.129120195027574e-06
	-6.586021194923144e-06
	-1.359478637528185e-06
	-1.789267569570887e-07
	-2.417551562541922e-05
	-1.682549935680582e-06
	-8.951974895490774e-08
	-3.456961652897342e-06
	-3.056918393734623e-06
	-7.609779532423636e-07
	-1.359478637528185e-06
	-1.051000055264816e-03
	-1.077748627258401e-04
	-5.014795941440940e-04
	-1.155278802311088e-03
 2	2.000000000000000e-12
	-2.238749851150602e-06
	-1.166897303657109e-06
	-1.071852547493492e-06
	-3.161672206406947e-07
	-2.201229479712886e-07
	-8.507300830164148e-07
	-3.161672206406947e-07
	0.000000000000000e+00
	-1.702459682538618e-06
	-8.517295995222034e-07
	-3.161672206406947e-07
	-6.265703876076399e-06
	-3.705456014602237e-06
	-9.722641626673941e-06
	-2.439130163420148e-06
	-4.967150866069466e-07
	-2.839548328362421e-05
	-3.376852126030360e-06
	-1.472908670124928e-07
	-6.029339103094389e-06
	-4.819868709854327e-06
	-6.762898316928248e-07
	-2.439130163420148e-06
	-6.067141601890582e-03
	-7.380561117561532e-04
	-2.872900420106884e-03
	-6.512809549839617e-03
 3	3.000000000000000e-12
	-3.588175700461103e-06
	-1.783191808742344e-06
	-1.804983891718760e-06
	-6.176591427356166e-07
	-4.479619521584942e-07
	-1.165532666006727e-06
	-6.176591427356166e-07
	0.000000000000000e+00
	-2.522554605566993e-06
	-1.357021939560266e-06
	-6.176591427356167e-07
	-8.888996935314776e-06
	-4.882169370495575e-06
	-1.207238334882286e-05
	-3.313025079449493e-06
	-9.061173109804994e-07
	-3.091495916198075e-05
	-4.654537608931777e-06
	-1.825127575814199e-07
	-8.046770098957477e-06
	-6.091793329837215e-06
	-5.864155702115151e-07
	-3.313025079449493e-06
	-1.609855442799758e-02
	-2.373355564028988e-03
	-7.703482783991715e-03
	-1.685391601733346e-02
 4	4.000000000000000e-12
	-4.951588902669899e-06
	-2.363380010959469e-06
	-2.588208891710429e-06
	-9.624778176621265e-07
	-7.295246584109617e-07
	-1.400902193297342e-06
	-9.624778176621265e-07
	0.000000000000000e+00
	-3.259586426596810e-06
	-1.858684233299467e-06
	-9.624778176621265e-07
	-1.040852061834006e-05
	-5.533498123512935e-06
	-1.348229558827947e-05
	-3.863573531321476e-06
	-1.302079029739667e-06
	-3.251893952577684e-05
	-5.342501467711276e-06
	-1.942348731171840e-07
	-9.275733674592813e-06
	-6.764628315655619e-06
	-5.502934509431063e-07
	-3.863573531321476e-06
	-2.973897172329951e-02
	-5.205719504897802e-03
	-1.457019599716578e-02
	-3.044464493307414e-02
 5	5.000000000000000e-12
	-6.324135204448154e-06
	-2.930367143118427e-06
	-3.393768061329728e-06
	-1.317726974299816e-06
	-1.041076186151201e-06
	-1.612640168818611e-06
	-1.317726974299816e-06
	0.000000000000000e+00
	-3.965332043997138e-06
	-2.352691875178527e-06
	-1.317726974299816e-06
	-1.125668137484943e-05
	-5.879926713254165e-06
	-1.428677614914841e-05
	-4.200314512100054e-06
	-1.623960203550111e-06
	-3.339806763558633e-05
	-5.697860594940911e-06
	-1.953616733969502e-07
	-1.000912550465296e-05
	-7.091007279913887e-06
	-5.346723822195856e-07
	-4.200314512100054e-06
	-4.534881777704679e-02
	-9.070427831994726e-03
	-2.283613990419937e-02
	-4.560022517629403e-02
 6	5.999999999999999e-12
	-7.698818636628534e-06
	-3.491677840252691e-06
	-4.207140796375843e-06
	-1.671814074042393e-06
	-1.370768112968117e-06
	-1.819863766210297e-06
	-1.671814074042393e-06
	0.000000000000000e+00
	-4.656236449618024e-06
	-2.836372683407727e-06
	-1.671814074042393e-06
	-1.173243018060810e-05
	-6.063477822084909e-06
	-1.474128342577689e-05
	-4.402857581531030e-06
	-1.855635009156026e-06
	-3.384028941827044e-05
	-5.881345431584598e-06
	-1.931526508610340e-07
	-1.044748344002598e-05
	-7.242924982381156e-06
	-5.262238395665575e-07
	-4.402857581531030e-06
	-6.211483976724760e-02
	-1.374977008526361e-02
	-3.211773096543587e-02
	-6.157294767148255e-02
 7	6.999999999999999e-12
	-9.070463042902684e-06
	-4.049306630229798e-06
	-5.021156412672887e-06
	-2.021299472145590e-06
	-1.711805459646131e-06
	-2.028007158084208e-06
	-2.021299472145590e-06
	0.000000000000000e+00
	-5.337358111110962e-06
	-3.309350953026756e-06
	-2.021299472145590e-06
	-1.199245319567083e-05
	-6.154561760983134e-06
	-1.498323916132425e-05
	-4.516539147986850e-06
	-2.003979038221368e-06
	-3.401291016880668e-05
	-5.971174355031680e-06
	-1.905242403675745e-07
	-1.069802873816449e-05
	-7.305074693241191e-06
	-5.198628013437944e-07
	-4.516539147986850e-06
	-7.959530470681762e-02
	-1.902873662717904e-02
	-4.213841712805123e-02
	-7.799076331440433e-02
 8	8.000000000000000e-12
	-1.043532883003483e-05
	-4.603059610774318e-06
	-5.832269219260511e-06
	-2.366040153948334e-06
	-2.059279217314039e-06
	-2.237019456825984e-06
	-2.366040153948334e-06
	0.000000000000000e+00
	-6.010009458772458e-06
	-3.772990001946473e-06
	-2.366040153948334e-06
	-1.212463642835915e-05
	-6.191320475509237e-06
	-1.509387199090535e-05
	-4.573071661263669e-06
	-2.090842547887001e-06
	-3.401518960125893e-05
	-6.007771769537721e-06
	-1.882242794535626e-07
	-1.082863253467106e-05
	-7.318864746239764e-06
	-5.138579092005557e-07
	-4.573071661263669e-06
	-9.749642910500075e-02
	-2.469053706814689e-02
	-5.264608069847264e-02
	-9.462851894493285e-02
 9	9.000000000000000e-12
	-1.179169789336460e-05
	-5.152578630403463e-06
	-6.639119262961135e-06
	-2.706993422550286e-06
	-2.409626270829686e-06
	-2.445585207853177e-06
	-2.706993422550286e-06
	0.000000000000000e+00
	-6.675078199984625e-06
	-4.229492992131448e-06
	-2.706993422550286e-06
	-1.218259157643860e-05
	-6.196854204335124e-06
	-1.512619664360863e-05
	-4.596144400507838e-06
	-2.140818345484634e-06
	-3.391169855716886e-05
	-6.014225765775311e-06
	-1.861842547248271e-07
	-1.088734344940417e-05
	-7.305651515727211e-06
	-5.077531371998914e-07
	-4.596144400507838e-06
	-1.156100455522902e-01
	-3.055540425646030e-02
	-6.342588807821475e-02
	-1.113442714444502e-01
 10	9.999999999999999e-12
	-1.313784769532192e-05
	-5.697176403546365e-06
	-7.440671291775558e-06
	-3.044485312433143e-06
	-2.761002430344544e-06
	-2.652691091113222e-06
	-3.044485312433143e-06
	0.000000000000000e+00
	-7.332359952544236e-06
	-4.679668861431013e-06
	-3.044485312433143e-06
	-1.218824310219009e-05
	-6.180652745511781e-06
	-1.510241556044973e-05
	-4.596415116344614e-06
	-2.166355702113630e-06
	-3.372830932697213e-05
	-5.999763517518019e-06
	-1.842683174603309e-07
	-1.089524484396970e-05
	-7.273329061173464e-06
	-5.014189675825468e-07
	-4.596415116344614e-06
	-1.338320211232791e-01
	-3.653602385752371e-02
	-7.436934000873728e-02
	-1.280662790496748e-01
 11	1.100000000000000e-11
	-1.447171309894660e-05
	-6.235968654925769e-06
	-8.235744444020827e-06
	-3.378503345970041e-06
	-3.112026797594160e-06
	-2.857465308955728e-06
	-3.378503345970041e-06
	0.000000000000000e+00
	-7.981182955382395e-06
	-5.123717646426666e-06
	-3.378503345970041e-06
	-1.215468417766977e-05
	-6.148308141923776e-06
	-1.503581322726679e-05
	-4.580397048715180e-06
	-2.175380880318944e-06
	-3.347970972193284e-05
	-5.969774487544188e-06
	-1.823693199515967e-07
	-1.086527655421003e-05
	-7.226283600959328e-06
	-4.947622522952086e-07
	-4.580397048715180e-06
	-1.520856702842894e-01
	-4.257502881890281e-02
	-8.540014656599799e-02
	-1.447405938751737e-01
 12	1.200000000000000e-11
	-1.579056572144569e-05
	-6.767761469899162e-06
	-9.022804251546526e-06
	-3.708729156227198e-06
	-3.461482847465331e-06
	-3.059032313671964e-06
	-3.708729156227198e-06
	0.000000000000000e+00
	-8.620353717753159e-06
	-5.561321404081195e-06
	-3.708729156227199e-06
	-1.209022670887833e-05
	-6.103227944334763e-06
	-1.493467281545411e-05
	-4.552165304564714e-06
	-2.172992950341130e-06
	-3.317419541220871e-05
	-5.927546739255378e-06
	-1.804096163630857e-07
	-1.080568886568347e-05
	-7.167062489050878e-06
	-4.876879070566549e-07
	-4.552165304564714e-06
	-1.703050538170824e-01
	-4.863081483695098e-02
	-9.645784030503253e-02
	-1.613186317368254e-01
 13	1.300000000000000e-11
	-1.709458577464879e-05
	-7.292702091727675e-06
	-9.801883682921115e-06
	-4.035435218778694e-06
	-3.808760300191777e-06
	-3.257266872948980e-06
	-4.035435218778694e-06
	0.000000000000000e+00
	-9.250390255678320e-06
	-5.993123382729340e-06
	-4.035435218778694e-06
	-1.200474166988702e-05
	-6.049345339377775e-06
	-1.480939986967827e-05
	-4.515938415401360e-06
	-2.163848133708705e-06
	-3.282570111644290e-05
	-5.876873139970262e-06
	-1.783560172167489e-07
	-1.072607292442789e-05
	-7.099017250421531e-06
	-4.801997411648931e-07
	-4.515938415401360e-06
	-1.884488609840828e-01
	-5.467497195856480e-02
	-1.074970850753719e-01
	-1.777814644749264e-01
 14	1.400000000000000e-11
	-1.838252774672326e-05
	-7.810257913415673e-06
	-1.057226983330758e-05
	-4.358442871497707e-06
	-4.153311334375640e-06
	-3.451815041917964e-06
	-4.358442871497707e-06
	0.000000000000000e+00
	-9.870773540849908e-06
	-6.418958498931944e-06
	-4.358442871497707e-06
	-1.190199314767492e-05
	-5.988056562486117e-06
	-1.466384992953080e-05
	-4.473290949786005e-06
	-2.149794543864649e-06
	-3.243880198959757e-05
	-5.819101827343385e-06
	-1.761877799517743e-07
	-1.063010102020831e-05
	-7.023257509938950e-06
	-4.722755535616558e-07
	-4.473290949786005e-06
	-2.064857752983737e-01
	-6.069129652809810e-02
	-1.184897588235720e-01
	-1.941082531265356e-01
 15	1.500000000000000e-11
	-1.965290707614700e-05
	-8.319782934537348e-06
	-1.133312414160965e-05
	-4.677482293231308e-06
	-4.494623885154746e-06
	-3.642300641306042e-06
	-4.677482293231308e-06
	0.000000000000000e+00
	-1.048080089776095e-05
	-6.838500256454907e-06
	-4.677482293231309e-06
	-1.178430461529738e-05
	-5.920160738781868e-06
	-1.450038600994531e-05
	-4.425152826052929e-06
	-2.131962722629729e-06
	-3.201617046525471e-05
	-5.755001143625523e-06
	-1.738896915441024e-07
	-1.052005758939663e-05
	-6.940384084137921e-06
	-4.638971267223964e-07
	-4.425152826052929e-06
	-2.243876658705329e-01
	-6.666707376619115e-02
	-1.294124220477525e-01
	-2.102786706141439e-01
 16	1.600000000000000e-11
	-2.090192245737061e-05
	-8.819578772111549e-06
	-1.208234368525906e-05
	-4.991742277825508e-06
	-4.831768847828481e-06
	-3.827836494286040e-06
	-4.991742277825508e-06
	0.000000000000000e+00
	-1.107841133171662e-05
	-7.250574837430575e-06
	-4.991742277825509e-06
	-1.165180555860177e-05
	-5.845488557913647e-06
	-1.431885460350624e-05
	-4.371590046408264e-06
	-2.110779617743258e-06
	-3.155592777723418e-05
	-5.684404190000326e-06
	-1.714343819526397e-07
	-1.039616602632128e-05
	-6.850005709018333e-06
	-4.550018907279637e-07
	-4.371590046408264e-06
	-2.421089294366954e-01
	-7.258531320523715e-02
	-1.402331799605135e-01
	-2.262520696732693e-01
 17	1.700000000000000e-11
	-2.213103641575367e-05
	-9.310344816181055e-06
	-1.282069159957262e-05
	-5.301566978810373e-06
	-5.164888713610432e-06
	-4.008777837370681e-06
	-5.301566978810373e-06
	0.000000000000000e+00
	-1.166458072333287e-05
	-7.655802885962191e-06
	-5.301566978810373e-06
	-1.150753785840984e-05
	-5.765268802167114e-06
	-1.412280660863514e-05
	-4.313705600154915e-06
	-2.087155264865063e-06
	-3.106457860543788e-05
	-5.608480078221667e-06
	-1.688364826069260e-07
	-1.026135595264454e-05
	-6.753358144733422e-06
	-4.456600002929018e-07
	-4.313705600154915e-06
	-2.596514822731392e-01
	-7.844522652122801e-02
	-1.509487348858256e-01
	-2.420375179018051e-01
 18	1.800000000000000e-11
	-2.333914294645093e-05
	-9.791609683061957e-06
	-1.354753326338897e-05
	-5.606710453198917e-06
	-5.493663831951970e-06
	-4.184899229863042e-06
	-5.606710453198917e-06
	0.000000000000000e+00
	-1.223876866130004e-05
	-8.053869431437002e-06
	-5.606710453198917e-06
	-1.135213414309042e-05
	-5.679690679411719e-06
	-1.391295569425366e-05
	-4.251713605910613e-06
	-2.061341993167387e-06
	-3.054319258432028e-05
	-5.527400156760481e-06
	-1.660930960491731e-07
	-1.011628546128395e-05
	-6.650582292997893e-06
	-4.358788727060987e-07
	-4.251713605910613e-06
	-2.769982710094970e-01
	-8.424064940799507e-02
	-1.615466159855336e-01
	-2.576213654771095e-01
 19	1.900000000000000e-11
	-2.452515900509126e-05
	-1.026291591622940e-05
	-1.426224308886185e-05
	-5.906922939335802e-06
	-5.817790929350714e-06
	-4.355992976893604e-06
	-5.906922939335802e-06
	0.000000000000000e+00
	-1.280044513640474e-05
	-8.444452159511141e-06
	-5.906922939335802e-06
	-1.118601217827924e-05
	-5.588876140399354e-06
	-1.368980173089160e-05
	-4.185750536127248e-06
	-2.033498549913255e-06
	-2.999260907007902e-05
	-5.441270275811847e-06
	-1.632025332087739e-07
	-9.961406137466382e-06
	-6.541768599846068e-06
	-4.256684403543420e-07
	-4.185750536127248e-06
	-2.941332700267540e-01
	-8.996599456056216e-02
	-1.720155741316968e-01
	-2.729903228166319e-01
 20	2.000000000000000e-11
	-2.568433313429865e-05
	-1.072216780616568e-05
	-1.496216532813297e-05
	-6.201123233878902e-06
	-6.136181025691125e-06
	-4.521044572286777e-06
	-6.201123233878902e-06
	0.000000000000000e+00
	-1.334702887472862e-05
	-8.825984302441844e-06
	-6.201123233878903e-06
	-1.100788132322814e-05
	-5.492128825450056e-06
	-1.345176917972573e-05
	-4.115321518408199e-06
	-2.003439123708432e-06
	-2.940926292963032e-05
	-5.349403090164472e-06
	-1.601413583826180e-07
	-9.795617697530556e-06
	-6.426073858627845e-06
	-4.149788175882332e-07
	-4.115321518408199e-06
	-3.110042070556890e-01
	-9.560378623839516e-02
	-1.823224659273015e-01
	-2.880945488645716e-01
 21	2.100000000000000e-11
	-2.681880029833254e-05
	-1.117036854275082e-05
	-1.564843175558172e-05
	-6.489765172123652e-06
	-6.449219793586913e-06
	-4.680603370627173e-06
	-6.489765172123652e-06
	0.000000000000000e+00
	-1.387981533262198e-05
	-9.199211961994807e-06
	-6.489765172123652e-06
	-1.081941578151890e-05
	-5.390244383506788e-06
	-1.320098521529106e-05
	-4.041041770916029e-06
	-1.971502170247130e-06
	-2.879787498318103e-05
	-5.252553888432320e-06
	-1.569305581170219e-07
	-9.620507679240111e-06
	-6.304399240833339e-06
	-4.038846197995500e-07
	-4.041041770916029e-06
	-3.276267426118823e-01
	-1.011591660862751e-01
	-1.924762326349510e-01
	-3.029519464507116e-01
 22	2.200000000000000e-11
	-2.792778433209218e-05
	-1.160721374391947e-05
	-1.632057058817271e-05
	-6.772648286038700e-06
	-6.756680355538113e-06
	-4.834565457880768e-06
	-6.772648286038700e-06
	0.000000000000000e+00
	-1.439845569051537e-05
	-9.563890232634600e-06
	-6.772648286038699e-06
	-1.062082213400685e-05
	-5.283315709324110e-06
	-1.293776883878640e-05
	-3.962988194729008e-06
	-1.937740057934803e-06
	-2.815925721706155e-05
	-5.150800193799066e-06
	-1.535719926933723e-07
	-9.436318296828985e-06
	-6.176841527720387e-06
	-3.924044822801786e-07
	-3.962988194729008e-06
	-3.439886082057747e-01
	-1.066280726884952e-01
	-2.024690282476950e-01
	-3.175519257916394e-01
 23	2.300000000000000e-11
	-2.901029925235543e-05
	-1.203230977374838e-05
	-1.697798947860705e-05
	-7.049520972066999e-06
	-7.058290042536451e-06
	-4.982788801681389e-06
	-7.049520972066999e-06
	0.000000000000000e+00
	-1.490248823775198e-05
	-9.919699436070596e-06
	-7.049520972066999e-06
	-1.041217008934387e-05
	-5.171379981044981e-06
	-1.266227923226037e-05
	-3.881191873863335e-06
	-1.902174523016887e-06
	-2.749391431310549e-05
	-5.044165716226199e-06
	-1.500663709412532e-07
	-9.243165384715533e-06
	-6.043437222223799e-06
	-3.805536332236720e-07
	-3.881191873863335e-06
	-3.600753778853806e-01
	-1.120057608475436e-01
	-2.122918666657042e-01
	-3.318816348455387e-01
 24	2.400000000000000e-11
	-3.006176401423326e-05
	-1.244368579801702e-05
	-1.761807821621624e-05
	-7.319302813808616e-06
	-7.352964546848876e-06
	-5.124382984208404e-06
	-7.319302813808616e-06
	0.000000000000000e+00
	-1.538949665357576e-05
	-1.026511366936736e-05
	-7.319302813808615e-06
	-1.019223917509642e-05
	-5.053845239962056e-06
	-1.237312890214344e-05
	-3.795211083301934e-06
	-1.864594283679190e-06
	-2.679906445639672e-05
	-4.932057808346527e-06
	-1.463962186454283e-07
	-9.040026481505455e-06
	-5.903490269167947e-06
	-3.683048093281287e-07
	-3.795211083301934e-06
	-3.758339295928952e-01
	-1.172747026280459e-01
	-2.219120440540713e-01
	-3.458904942916904e-01
 25	2.500000000000000e-11
	-3.108363340597247e-05
	-1.284204716976304e-05
	-1.824158623620942e-05
	-7.582285688026778e-06
	-7.640961552042284e-06
	-5.259761481736263e-06
	-7.582285688026778e-06
	0.000000000000000e+00
	-1.586038616590340e-05
	-1.060062468416714e-05
	-7.582285688026778e-06
	-9.961996950091181e-06
	-4.931214905353461e-06
	-1.207158927184701e-05
	-3.705420807998913e-06
	-1.825177319683911e-06
	-2.607770269924776e-05
	-4.814954190602497e-06
	-1.425764744592435e-07
	-8.827817171393222e-06
	-5.757586651086953e-06
	-3.557096635421114e-07
	-3.705420807998913e-06
	-3.912744312252092e-01
	-1.224383787115048e-01
	-2.313361027774741e-01
	-3.595898632447430e-01
 26	2.600000000000000e-11
	-3.207596973043555e-05
	-1.322748105736613e-05
	-1.884848867306942e-05
	-7.838445440824608e-06
	-7.922233839982911e-06
	-5.389035616541517e-06
	-7.838445440824608e-06
	0.000000000000000e+00
	-1.631529044962802e-05
	-1.092625483308651e-05
	-7.838445440824608e-06
	-9.721828609097829e-06
	-4.803705604735684e-06
	-1.175821465521721e-05
	-3.611980794178521e-06
	-1.783996127137438e-06
	-2.533125278591463e-05
	-4.693054471664896e-06
	-1.386137544482804e-07
	-8.606927796507570e-06
	-5.605978765766322e-06
	-3.427973077868832e-07
	-3.611980794178521e-06
	-4.063927646282565e-01
	-1.274955544827288e-01
	-2.405618512442843e-01
	-3.729769800907579e-01
 27	2.700000000000000e-11
	-3.303789255236585e-05
	-1.359966334976928e-05
	-1.943822920259656e-05
	-8.087539488296305e-06
	-8.196520268701251e-06
	-5.512123861472978e-06
	-8.087539488296305e-06
	0.000000000000000e+00
	-1.675383279536828e-05
	-1.124170893389531e-05
	-8.087539488296305e-06
	-9.471770576998355e-06
	-4.671364334847235e-06
	-1.143313798059516e-05
	-3.514923438928740e-06
	-1.741060708748607e-06
	-2.456023471719955e-05
	-4.566392614977209e-06
	-1.345097567498480e-07
	-8.377439062157978e-06
	-5.448721399024774e-06
	-3.295847535666829e-07
	-3.514923438928740e-06
	-4.211745458731013e-01
	-1.324416259731994e-01
	-2.495808543683783e-01
	-3.860391170687499e-01
 28	2.800000000000000e-11
	-3.396525970703544e-05
	-1.395686819759568e-05
	-2.000839150943976e-05
	-8.328555538550031e-06
	-8.462793501757921e-06
	-5.628312659045649e-06
	-8.328555538550031e-06
	0.000000000000000e+00
	-1.717391066672749e-05
	-1.154559800768184e-05
	-8.328555538550031e-06
	-9.210862584727695e-06
	-4.533760615199729e-06
	-1.109533177006884e-05
	-3.413922595310075e-06
	-1.696204954631853e-06
	-2.376278637552410e-05
	-4.434529700526216e-06
	-1.302523459575033e-07
	-8.138574098265038e-06
	-5.285311524820533e-06
	-3.160621081750187e-07
	-3.413922595310075e-06
	-4.355679057201747e-01
	-1.372596894859087e-01
	-2.583618472131101e-01
	-3.987277043636624e-01
 29	2.900000000000000e-11
	-3.485841442350425e-05
	-1.429932640905620e-05
	-2.055908801444804e-05
	-8.561522487392098e-06
	-8.721056154557223e-06
	-5.737803921664104e-06
	-8.561522487392098e-06
	0.000000000000000e+00
	-1.757583578155492e-05
	-1.183803185989081e-05
	-8.561522487392098e-06
	-8.939580633302222e-06
	-4.391165858681801e-06
	-1.074546090468632e-05
	-3.309177452142781e-06
	-1.649517269231207e-06
	-2.294058162739491e-05
	-4.297719751442395e-06
	-1.258499227097302e-07
	-7.890800260641405e-06
	-5.116067020749218e-06
	-3.022617897967075e-07
	-3.309177452142781e-06
	-4.495705293533874e-01
	-1.419492350007198e-01
	-2.669040756265930e-01
	-4.110420641651427e-01
 30	3.000000000000000e-11
	-3.571845781384272e-05
	-1.462758984147031e-05
	-2.109086797237241e-05
	-8.786651655857200e-06
	-8.971495003377142e-06
	-5.840938185613115e-06
	-8.786651655857200e-06
	0.000000000000000e+00
	-1.796031115460838e-05
	-1.211937296899526e-05
	-8.786651655857200e-06
	-8.658581319271028e-06
	-4.243933860012789e-06
	-1.038438324026913e-05
	-3.200949401243636e-06
	-1.601117307707894e-06
	-2.209564428394568e-05
	-4.156300906036079e-06
	-1.213132347170085e-07
	-7.634730492976291e-06
	-4.941402121583972e-06
	-2.882179993258375e-07
	-3.200949401243636e-06
	-4.631892463032949e-01
	-1.465127680658214e-01
	-2.752123647607002e-01
	-4.229901850843052e-01
 31	3.100000000000000e-11
	-3.654462738324322e-05
	-1.494140773644722e-05
	-2.160321964679600e-05
	-9.003716099850997e-06
	-9.213860976408775e-06
	-5.937691636596220e-06
	-9.003716099850997e-06
	0.000000000000000e+00
	-1.832705030698345e-05
	-1.238935867038723e-05
	-9.003716099850997e-06
	-8.367941934193468e-06
	-4.092138241651967e-06
	-1.001227543696929e-05
	-3.089289738634678e-06
	-1.551022119599708e-06
	-2.122858038482510e-05
	-4.010334723203540e-06
	-1.166448788467084e-07
	-7.370475998792308e-06
	-4.761403561417758e-06
	-2.739480729980981e-07
	-3.089289738634678e-06
	-4.764095982365188e-01
	-1.509458164751036e-01
	-2.832785626279500e-01
	-4.345597010470367e-01
 32	3.200000000000001e-11
	-3.733345967574256e-05
	-1.523939527902618e-05
	-2.209406439671638e-05
	-9.211835722234370e-06
	-9.447246338341730e-06
	-6.027559556791808e-06
	-9.211835722234370e-06
	0.000000000000000e+00
	-1.867437761516645e-05
	-1.264681805837464e-05
	-9.211835722234370e-06
	-8.067026303060908e-06
	-3.935521236718600e-06
	-9.628509133012774e-06
	-2.973999782575019e-06
	-1.499123653761573e-06
	-2.033841429527337e-05
	-3.859551170130079e-06
	-1.118379826959502e-07
	-7.097547733731911e-06
	-4.575770925529996e-06
	-2.594545528889808e-07
	-2.973999782575019e-06
	-4.891840909237259e-01
	-1.552331749134853e-01
	-2.910746157674838e-01
	-4.457072118240692e-01
 33	3.300000000000001e-11
	-3.808382471056210e-05
	-1.552117367953467e-05
	-2.256265103102743e-05
	-9.410680255233089e-06
	-9.671290777061313e-06
	-6.110493424301583e-06
	-9.410680255233089e-06
	0.000000000000000e+00
	-1.900185367826769e-05
	-1.289136025396611e-05
	-9.410680255233089e-06
	-7.755892078981148e-06
	-3.774155839158603e-06
	-9.233251444076182e-06
	-2.855129187736572e-06
	-1.445435764792607e-06
	-1.942577160670951e-05
	-3.704009718296295e-06
	-1.068952609387022e-07
	-6.816046212980610e-06
	-4.384590461831930e-06
	-2.447564828487811e-07
	-2.855129187736572e-06
	-5.014919028933416e-01
	-1.593684418726184e-01
	-2.985887948909369e-01
	-4.564149175793051e-01
 34	3.400000000000001e-11
	-3.879802385387738e-05
	-1.578780523761331e-05
	-2.301021861626407e-05
	-9.600750417480776e-06
	-9.886472241159124e-06
	-6.187054820132537e-06
	-9.600750417480776e-06
	0.000000000000000e+00
	-1.931080119523748e-05
	-1.312374637510494e-05
	-9.600750417480776e-06
	-7.435484412683506e-06
	-3.608522491906304e-06
	-8.827653574618166e-06
	-2.733035300573015e-06
	-1.390126981663454e-06
	-1.849316282567789e-05
	-3.544180081312574e-06
	-1.018310313648241e-07
	-6.526809120439242e-06
	-4.188424422025449e-06
	-2.298881845612384e-07
	-2.733035300573015e-06
	-5.133542100810551e-01
	-1.633589052763573e-01
	-3.058347074698318e-01
	-4.667045532208466e-01
 35	3.500000000000001e-11
	-3.947542400734729e-05
	-1.603911262699375e-05
	-2.343631138035354e-05
	-9.781841933034290e-06
	-1.009255944131765e-05
	-6.257270693959460e-06
	-9.781841933034290e-06
	0.000000000000000e+00
	-1.960102263299534e-05
	-1.334375193903588e-05
	-9.781841933034290e-06
	-7.105955342390539e-06
	-3.438729268897633e-06
	-8.411964157501946e-06
	-2.607794989555619e-06
	-1.333226306836138e-06
	-1.754130262927152e-05
	-3.380160373901995e-06
	-9.664892359296121e-08
	-6.230003014161425e-06
	-3.987399994046189e-06
	-2.148662039676444e-07
	-2.607794989555619e-06
	-5.247568238100031e-01
	-1.672003324251743e-01
	-3.128045802116790e-01
	-4.765645107823746e-01
 36	3.600000000000002e-11
	-4.011344276185135e-05
	-1.627412018110642e-05
	-2.383932258074493e-05
	-9.953267988868966e-06
	-1.028882826675841e-05
	-6.320852192237451e-06
	-9.953267988868966e-06
	0.000000000000000e+00
	-1.987134650622397e-05
	-1.355049431398652e-05
	-9.953267988868966e-06
	-6.767022812527183e-06
	-3.264689631127875e-06
	-7.985956013467738e-06
	-2.479337318294037e-06
	-1.274686736743700e-06
	-1.657001233343046e-05
	-3.211852199057786e-06
	-9.134712282750063e-08
	-5.925436082883994e-06
	-3.781417288242817e-06
	-1.997005112147937e-07
	-2.479337318294037e-06
	-5.356602309805508e-01
	-1.708803548373246e-01
	-3.194755522051286e-01
	-4.859598210664810e-01
 37	3.700000000000002e-11
	-4.070919297118495e-05
	-1.649174710982506e-05
	-2.421744586135989e-05
	-1.011425602284703e-05
	-1.047446104636227e-05
	-6.377491086978035e-06
	-1.011425602284703e-05
	0.000000000000000e+00
	-2.012047590197566e-05
	-1.374298481499763e-05
	-1.011425602284703e-05
	-6.418412849605045e-06
	-3.086326771237320e-06
	-7.549420271822852e-06
	-2.347597675037361e-06
	-1.214462366459510e-06
	-1.557917771741268e-05
	-3.039165856247570e-06
	-8.592421055376927e-08
	-5.612927342346580e-06
	-3.570388162061762e-06
	-1.844028039920633e-07
	-2.347597675037361e-06
	-5.460195215172188e-01
	-1.743849694310229e-01
	-3.258217102163592e-01
	-4.948509654196508e-01
 38	3.800000000000002e-11
	-4.126629244039087e-05
	-1.669358364390141e-05
	-2.457270879648946e-05
	-1.026564286184364e-05
	-1.065028053103175e-05
	-6.427940782057777e-06
	-1.026564286184364e-05
	0.000000000000000e+00
	-2.035036904751548e-05
	-1.392242826545770e-05
	-1.026564286184364e-05
	-6.061335542285607e-06
	-2.904222519894507e-06
	-7.103751625337781e-06
	-2.213011799199280e-06
	-1.152764846268423e-06
	-1.457162969028257e-05
	-2.862680224747805e-06
	-8.039717916561362e-08
	-5.293507792699907e-06
	-3.354993393145270e-06
	-1.690031228550484e-07
	-2.213011799199280e-06
	-5.558737851271189e-01
	-1.777272499002972e-01
	-3.318672486486189e-01
	-5.032762448532809e-01
 39	3.900000000000003e-11
	-4.178424705322190e-05
	-1.687952162605392e-05
	-2.490472542716798e-05
	-1.040725491526683e-05
	-1.081608145649441e-05
	-6.472266710787089e-06
	-1.040725491526683e-05
	0.000000000000000e+00
	-2.056091068146065e-05
	-1.408864397067356e-05
	-1.040725491526683e-05
	-5.696042234054174e-06
	-2.718524949356836e-06
	-6.649289419302435e-06
	-2.075686673160258e-06
	-1.089638130858706e-06
	-1.354820329219132e-05
	-2.682536658596757e-06
	-7.477080797286672e-08
	-4.967415045636595e-06
	-3.135407507806586e-06
	-1.535162833877521e-07
	-2.075686673160258e-06
	-5.652097142920015e-01
	-1.809033546802150e-01
	-3.376050116436285e-01
	-5.112253141995029e-01
 40	4.000000000000003e-11
	-4.226151450792785e-05
	-1.704903398560019e-05
	-2.521248052232766e-05
	-1.053865398987073e-05
	-1.097138457624053e-05
	-6.510379995729461e-06
	-1.053865398987073e-05
	0.000000000000000e+00
	-2.075147594181659e-05
	-1.424109594608713e-05
	-1.053865398987073e-05
	-5.322604634835574e-06
	-2.529304121008500e-06
	-6.186179864895847e-06
	-1.935669435341450e-06
	-1.025094197157214e-06
	-1.250938388796745e-05
	-2.498797324855056e-06
	-6.904776322696447e-08
	-4.634739704738410e-06
	-2.911714415842647e-06
	-1.379550499708450e-07
	-1.935669435341450e-06
	-5.739995996792876e-01
	-1.839048651939119e-01
	-3.430193350751087e-01
	-5.186747948635091e-01
 41	4.100000000000003e-11
	-4.269325279182804e-05
	-1.720028603668011e-05
	-2.549296675514794e-05
	-1.065856164000943e-05
	-1.111483838749349e-05
	-6.541724396670683e-06
	-1.065856164000943e-05
	0.000000000000000e+00
	-2.091985276432513e-05
	-1.437812836765445e-05
	-1.065856164000943e-05
	-4.940554731593498e-06
	-2.336403810547925e-06
	-5.714006723530873e-06
	-1.792832715307958e-06
	-9.590499336263574e-07
	-1.145469247134275e-05
	-2.311292182476772e-06
	-6.322468883193521e-08
	-4.295140044811127e-06
	-2.683735196260447e-06
	-1.223291154092221e-07
	-1.792832715307958e-06
	-5.821696092326945e-01
	-1.867087373641718e-01
	-3.480674064476407e-01
	-5.255596962996494e-01
 42	4.200000000000004e-11
	-4.308446279477628e-05
	-1.733538760016756e-05
	-2.574907519460871e-05
	-1.076818638317456e-05
	-1.124765559362532e-05
	-6.567201216993006e-06
	-1.076818638317456e-05
	0.000000000000000e+00
	-2.106862081797640e-05
	-1.450141960098339e-05
	-1.076818638317456e-05
	-4.551297791002100e-06
	-2.140464541572705e-06
	-5.234317063880626e-06
	-1.647659877948874e-06
	-8.917476396784078e-07
	-1.038706428561853e-05
	-2.120667847578495e-06
	-5.731986447658911e-08
	-3.949775729296397e-06
	-2.452219358531194e-06
	-1.066608775350736e-07
	-1.647659877948874e-06
	-5.897801097738627e-01
	-1.893347048855748e-01
	-3.527856577532299e-01
	-5.319372623574061e-01
 43	4.300000000000004e-11
	-4.343479688499255e-05
	-1.745429140139823e-05
	-2.598050548359433e-05
	-1.086739383726117e-05
	-1.136966682472233e-05
	-6.586897564137055e-06
	-1.086739383726117e-05
	0.000000000000000e+00
	-2.119773622300906e-05
	-1.461083865887200e-05
	-1.086739383726117e-05
	-4.155200265736833e-06
	-1.941676420090876e-06
	-4.747551989802984e-06
	-1.500289959088965e-06
	-8.232480146706893e-07
	-9.307458438360753e-06
	-1.927111743236927e-06
	-5.133923031569461e-08
	-3.598964592697118e-06
	-2.217391769155400e-06
	-9.096277316664943e-08