Title: CKT15
Date: Thu Mar  8 15:17:25 2018
Plotname: Transient analysis
Flags: real
No. Variables: 9
No. Points: 15001   
Command: version 4.3.1
Variables:
 0 time S
 1 v(2) V
 2 v(3) V
 3 v(5) V
 4 v(6) V
 5 v(7) V
 6 v(9) V
 7 v(11) V
 8 v(14) V
Values:
 0	0.000000000000000e+00
	0.000000000000000e+00
	0.000000000000000e+00
	0.000000000000000e+00
	0.000000000000000e+00
	0.000000000000000e+00
	0.000000000000000e+00
	0.000000000000000e+00
	0.000000000000000e+00
 1	1.000000000000000e-12
	3.011170428849954e-14
	2.588527867333860e-06
	-2.006273129046090e-07
	2.006273437370580e-07
	2.588527864471007e-06
	7.207439228904815e-16
	1.800000000000000e-07
	1.224015682898086e-05
 2	2.000000000000000e-12
	7.442615935982105e-12
	9.185520777250999e-06
	-4.928911843651033e-07
	4.928989977362800e-07
	9.185520273879459e-06
	3.707552437012258e-13
	3.600000000000000e-07
	1.705047206465951e-05
 3	3.000000000000000e-12
	9.580279346836835e-11
	1.448132254467971e-05
	-6.810465855171479e-07
	6.811482310322881e-07
	1.448131671210410e-05
	5.842715547587834e-12
	5.399999999999999e-07
	1.815006173449818e-05
 4	4.000000000000000e-12
	6.517359285991640e-10
	1.537354366614539e-05
	-7.265725342674096e-07
	7.272721363616717e-07
	1.537350758834248e-05
	4.786600751782871e-11
	7.200000000000000e-07
	1.726466254008537e-05
 5	5.000000000000000e-12
	2.471812558363253e-09
	1.304744908918920e-05
	-6.889769134492974e-07
	6.916512358185972e-07
	1.304732017867061e-05
	2.025086746474742e-10
	9.000000000000000e-07
	1.562288914308863e-05
 6	5.999999999999999e-12
	9.924067136623891e-09
	1.102399455852415e-05
	-4.429593603230463e-07
	4.538690728596524e-07
	1.102352637339046e-05
	9.856354474287187e-10
	8.999999999999999e-07
	1.387521771418307e-05
 7	6.999999999999999e-12
	2.946492418036358e-08
	1.041810648786539e-05
	-1.359792165258268e-07
	1.690371278240952e-07
	1.041685021820430e-05
	3.592944187781141e-09
	8.999999999999999e-07
	1.232489033800272e-05
 8	8.000000000000000e-12
	6.875335262125170e-08
	1.012717561809773e-05
	8.139712413057197e-08
	-2.537218244862671e-09
	1.012450297591778e-05
	1.010644796916017e-08
	9.000000000000000e-07
	1.097295830001080e-05
 9	9.000000000000000e-12
	1.357739932258221e-07
	9.362004613935859e-06
	1.857375214082382e-07
	-2.603068113907307e-08
	9.357188325944563e-06
	2.393271799616766e-08
	9.000000000000000e-07
	9.798664175957813e-06
 10	9.999999999999999e-12
	2.297991373349605e-07
	8.116685544220712e-06
	2.393411392388170e-07
	3.747593042141487e-08
	8.109171302284452e-06
	4.701796580676378e-08
	9.000000000000000e-07
	8.755679023994838e-06
 11	1.100000000000000e-11
	3.527864240939506e-07
	7.061374905790263e-06
	3.274403117617831e-07
	1.130081390250943e-07
	7.051032056916660e-06
	8.766349033643846e-08
	9.000000000000000e-07
	7.871262901085836e-06
 12	1.200000000000000e-11
	4.777081299336567e-07
	6.395212754391427e-06
	4.485368009122076e-07
	1.707867373364106e-07
	6.382741815615944e-06
	1.416215897574553e-07
	9.000000000000000e-07
	7.087569313842161e-06
 13	1.300000000000000e-11
	5.878464346214045e-07
	5.893707271495637e-06
	5.709997776389879e-07
	2.213412783751241e-07
	5.880244404347736e-06
	2.045120565092786e-07
	9.000000000000000e-07
	6.386323441944387e-06
 14	1.400000000000000e-11
	6.690825436311147e-07
	5.376954763563185e-06
	6.649868510079056e-07
	2.736634628434641e-07
	5.363858321269257e-06
	2.696083031262637e-07
	9.000000000000000e-07
	5.757387514862234e-06
 15	1.500000000000000e-11
	7.159287286793359e-07
	4.818341297463775e-06
	7.164324844352237e-07
	3.277945115547795e-07
	4.806736219438950e-06
	3.283802597619975e-07
	9.000000000000000e-07
	5.192680376390022e-06
 16	1.600000000000000e-11
	7.322214512984224e-07
	4.307646484289150e-06
	7.309360771211341e-07
	3.752132232439732e-07
	4.298097618136174e-06
	3.740763471711218e-07
	8.999999999999999e-07
	4.688397936549497e-06
 17	1.700000000000000e-11
	7.270713052884230e-07
	3.899882270443228e-06
	7.229853595607843e-07
	4.075214498179062e-07
	3.892326739235962e-06
	4.036806124380172e-07
	9.000000000000001e-07
	4.239870382760500e-06
 18	1.800000000000000e-11
	7.097757290210883e-07
	3.566903210248920e-06
	7.050477766445011e-07
	4.224695381332684e-07
	3.560843378836965e-06
	4.181147105051487e-07
	9.000000000000000e-07
	3.840173898031854e-06
 19	1.900000000000000e-11
	6.865707283741917e-07
	3.256641411788173e-06
	6.831629552811415e-07
	4.237355398207799e-07
	3.251463466665814e-06
	4.208559983961366e-07
	9.000000000000000e-07
	3.482097590241312e-06
 20	2.000000000000000e-11
	6.601939148823002e-07
	2.952132274961186e-06
	6.584211308339323e-07
	4.170355490104629e-07
	2.947372877022314e-06
	4.159625064356146e-07
	8.999999999999999e-07
	3.160061340735675e-06
 21	2.100000000000000e-11
	6.313072764900430e-07
	2.669692928279167e-06
	6.303754237440765e-07
	4.066430523636828e-07
	2.665143420889317e-06
	4.065828676552501e-07
	9.000000000000001e-07
	2.870150380176589e-06
 22	2.200000000000000e-11
	6.001514679619370e-07
	2.424408941467829e-06
	5.992575445968309e-07
	3.943423636102575e-07
	2.420062685710648e-06
	3.944742034687073e-07
	9.000000000000000e-07
	2.609092972573180e-06
 23	2.300000000000000e-11
	5.673814172420900e-07
	2.212325894158736e-06
	5.662673178965451e-07
	3.803215601503964e-07
	2.208256087427960e-06
	3.803532400960800e-07
	9.000000000000000e-07
	2.373650265873359e-06
 24	2.400000000000000e-11
	5.340151719185801e-07
	2.020166716154543e-06
	5.328407785829907e-07
	3.644857422671544e-07
	2.016427443101126e-06
	3.645328705406919e-07
	9.000000000000001e-07
	2.160777241349746e-06
 25	2.500000000000000e-11
	5.010128273059705e-07
	1.840583628581319e-06
	4.999891468000182e-07
	3.471430497985688e-07
	1.837175949884144e-06
	3.473705371268554e-07
	9.000000000000000e-07
	1.967956257379595e-06
 26	2.600000000000000e-11
	4.689823761969121e-07
	1.674933763848072e-06
	4.681607804070741e-07
	3.289534728809557e-07
	1.671822825950199e-06
	3.293728509199723e-07
	9.000000000000000e-07
	1.793200053987308e-06
 27	2.700000000000000e-11
	4.381740083824782e-07
	1.526191594134626e-06
	4.374704158943236e-07
	3.105765186949949e-07
	1.523337215187293e-06
	3.110754953711268e-07
	8.999999999999999e-07
	1.634797823461041e-06
 28	2.800000000000000e-11
	4.086460073962366e-07
	1.393534682607183e-06
	4.079626011548823e-07
	2.924320691303201e-07
	1.390908413838741e-06
	2.928976823219711e-07
	9.000000000000001e-07
	1.491127002216936e-06
 29	2.900000000000000e-11
	3.804234795013416e-07
	1.273373745119172e-06
	3.797256652771685e-07
	2.746965580671351e-07
	1.270958248252668e-06
	2.750899620406758e-07
	9.000000000000000e-07
	1.360659531862360e-06
 30	3.000000000000000e-11
	3.535610532027637e-07
	1.162925734207188e-06
	3.528717045730071e-07
	2.574292029857117e-07
	1.160706645259058e-06
	2.577756780828242e-07
	9.000000000000000e-07
	1.242045656264986e-06
 31	3.100000000000000e-11
	3.281259752758522e-07
	1.061542484731030e-06
	3.274802105624258e-07
	2.406840092458333e-07
	1.059503057915365e-06
	2.410233675872480e-07
	8.999999999999999e-07
	1.134135502823711e-06
 32	3.200000000000001e-11
	3.041599815182710e-07
	9.694009503470004e-07
	3.035725738037889e-07
	2.245442237859589e-07
	9.675224836402423e-07
	2.248951706839547e-07
	8.999999999999999e-07
	1.035926072210636e-06
 33	3.300000000000001e-11
	2.816609488880022e-07
	8.860325338748049e-07
	2.811240765686866e-07
	2.090999173115544e-07
	8.842976689218318e-07
	2.094566004054888e-07
	9.000000000000001e-07
	9.465043989562731e-07
 34	3.400000000000001e-11
	2.605903628836124e-07
	8.102512311317658e-07
	2.600886281311429e-07
	1.944166658476808e-07
	8.086462984602991e-07
	1.947639876647195e-07
	9.000000000000000e-07
	8.650319139261221e-07
 35	3.500000000000001e-11
	2.408919000941986e-07
	7.409303973710015e-07
	2.404153977328259e-07
	1.805239473885319e-07
	7.394453330238126e-07
	1.808516231839286e-07
	9.000000000000000e-07
	7.907547526089188e-07
 36	3.600000000000002e-11
	2.225059674741450e-07
	6.774535826936057e-07
	2.220530782706458e-07
	1.674231409575241e-07
	6.760803211881976e-07
	1.677294214100785e-07
	8.999999999999999e-07
	7.230065934435033e-07
 37	3.700000000000002e-11
	2.053747202824665e-07
	6.195134729036490e-07
	2.049478254532534e-07
	1.551014626771666e-07
	6.182444021890622e-07
	1.553893178808803e-07
	8.999999999999999e-07
	6.611945027070301e-07
 38	3.800000000000002e-11
	1.894405466204104e-07
	5.667426814603376e-07
	1.890412946895453e-07
	1.435411139040755e-07
	5.655700279577880e-07
	1.438134971789047e-07
	9.000000000000000e-07
	6.047812361073450e-07
 39	3.900000000000003e-11
	1.746434459192152e-07
	5.186208913927718e-07
	1.742711155314703e-07
	1.327216210728864e-07
	5.175369245788063e-07
	1.329795702629633e-07
	9.000000000000000e-07
	5.532763774741134e-07
 40	4.000000000000003e-11
	1.609205217633617e-07
	4.746265601361599e-07
	1.605729683312526e-07
	1.226187979286114e-07
	4.736240478043427e-07
	1.228620989079895e-07
	9.000000000000000e-07
	5.062352180378134e-07
 41	4.100000000000003e-11
	1.482076101917410e-07
	4.343660707032704e-07
	1.478827081812670e-07
	1.132039762727436e-07
	4.334385391685611e-07
	1.134324326665798e-07
	8.999999999999999e-07
	4.632576431175373e-07
 42	4.200000000000004e-11
	1.364414361611233e-07
	3.975537776546924e-07
	1.361376997679039e-07
	1.044447977674901e-07
	3.966954805874830e-07
	1.046588000757006e-07
	8.999999999999999e-07
	4.239833291119531e-07
 43	4.300000000000004e-11
	1.255609785998159e-07
	3.639246721319679e-07
	1.252773686512416e-07
	9.630692382165327e-08
	3.631304116368351e-07
	9.650726912294249e-08
	9.000000000000001e-07
	3.880855019257963e-07
 44	4.400000000000004e-11
	1.155078253353086e-07
	3.331949344954304e-07
	1.152433554437727e-07
	8.875559133528428e-08
	3.324599046747170e-07
	8.894310781214281e-08
	9.000000000000000e-07
	3.552664775462851e-07
 45	4.500000000000004e-11
	1.062260475745425e-07
	3.050866662689373e-07
	1.059796158718227e-07
	8.175649397207572e-08
	3.044063891958788e-07
	8.193187015038023e-08
	9.000000000000000e-07
	3.252553999309478e-07
 46	4.600000000000005e-11
	9.766213634266831e-08
	2.793607283035827e-07
	9.743259414745964e-08
	7.527609713410281e-08
	2.787310544740498e-07
	7.543993164786070e-08
	8.999999999999999e-07
	2.978065388502356e-07
 47	4.700000000000005e-11
	8.976517248647016e-08
	2.558181575861292e-07
	8.955144104435667e-08
	6.928210502733297e-08
	2.552352732448230e-07
	6.943500395497530e-08
	8.999999999999999e-07
	2.726969845470643e-07
 48	4.800000000000005e-11
	8.248821459266755e-08
	2.342802886106200e-07
	8.228932064318139e-08
	6.376626421158832e-08
	2.337406983103376e-07
	6.390886697926579e-08
	9.000000000000001e-07
	2.497239914245043e-07
 49	4.900000000000006e-11
	7.580949797283644e-08
	2.145752580592673e-07
	7.562453524615366e-08
	5.910234545432126e-08
	2.140757469446464e-07
	5.923528352736287e-08
	9.000000000000000e-07
	2.287027257623693e-07
 50	5.000000000000006e-11
	6.992193976992183e-08
	1.965401423649529e-07
	6.975002611180884e-08
	5.871864888538759e-08
	1.960777379087967e-07
	5.884247322377794e-08
	9.000000000000000e-07
	2.094646525092214e-07
 51	5.100000000000006e-11
	6.627729112305028e-08
	1.800281417670530e-07
	6.611756920293259e-08
	8.075910568457475e-08
	1.796000878083893e-07
	8.087403951806303e-08
	9.000000000000000e-07
	1.918562364113671e-07
 52	5.200000000000007e-11
	7.123507558422901e-08
	1.649042884394602e-07
	7.108679154053361e-08
	1.884337183149256e-07
	1.645080413006313e-07
	1.885384163522254e-07
	9.000000000000000e-07
	1.757316783450243e-07
 53	5.300000000000007e-11
	9.766957889277400e-08
	1.509678603726761e-07
	9.753226425421147e-08
	4.902167007371928e-07
	1.506012263857491e-07
	4.903060416780953e-07
	9.000000000000000e-07
	1.608737663157571e-07
 54	5.400000000000007e-11
	2.066489227525228e-07
	1.383361177820041e-07
	2.065235026586513e-07
	1.384765549229795e-06
	1.379966639758221e-07
	1.384810001748394e-06
	8.999999999999999e-07
	1.474058152393608e-07
 55	5.500000000000008e-11
	5.230270021960530e-07
	1.268029248599927e-07
	5.229221426623378e-07
	3.344791481726368e-06
	1.264885804179128e-07
	3.344672376741353e-06
	9.000000000000000e-07
	1.351070399948385e-07
 56	5.600000000000008e-11
	1.184487187885597e-06
	1.161888010291458e-07
	1.184433267318354e-06
	6.528282907131383e-06
	1.158978284967582e-07
	6.527697376883329e-06
	8.999999999999999e-07
	1.237781772986720e-07
 57	5.700000000000008e-11
	2.365289295144642e-06
	1.065061745941727e-07
	2.365373979275479e-06
	1.086958719825887e-05
	1.062368452820192e-07
	1.086784787530323e-05
	8.999999999999999e-07
	1.134035936499351e-07
 58	5.800000000000008e-11
	4.141497811248529e-06
	9.775598971772371e-08
	4.141924614330885e-06
	1.569998637234908e-05
	9.750670011334539e-08
	1.569583501972644e-05
	8.999999999999999e-07
	1.039031531832806e-07
 59	5.900000000000008e-11
	6.404113421779732e-06
	9.005571218150480e-08
	6.405271885308911e-06
	1.997933721914556e-05
	8.982497321983092e-08
	1.997091072662970e-05
	8.999999999999999e-07
	9.520550770481000e-08
 60	6.000000000000008e-11
	8.832582917698587e-06
	8.373924895300882e-08
	8.835090286180714e-06
	2.274455981245823e-05
	8.352567883378668e-08
	2.272969128089983e-05
	8.999999999999999e-07
	8.725047339012531e-08
 61	6.100000000000007e-11
	1.098088409186097e-05
	7.948702021246836e-08
	1.098554440399019e-05
	2.355504182109049e-05
	7.928935097201537e-08
	2.353190327040546e-05
	8.999999999999999e-07
	7.999494583668454e-08
 62	6.200000000000007e-11
	1.244766304071465e-05
	7.843970675566358e-08
	1.245531621074566e-05
	2.265090349066180e-05
	7.825682897021766e-08
	2.261869958584413e-05
	8.999999999999999e-07
	7.342456047324106e-08
 63	6.300000000000007e-11
	1.303894534204916e-05
	8.220868451624833e-08
	1.305024544284470e-05
	2.075003468921316e-05
	8.203977206587987e-08
	2.070930840598382e-05
	9.000000000000000e-07
	6.757301069803386e-08
 64	6.400000000000006e-11
	1.283097210289315e-05
	9.268152804508646e-08
	1.284619595691995e-05
	1.865243877820332e-05
	9.252629471406921e-08
	1.860475609259538e-05
	9.000000000000000e-07
	6.254882513989453e-08
 65	6.500000000000006e-11
	1.210422561685082e-05
	1.115672650922172e-07
	1.212321502109571e-05
	1.690619487638660e-05
	1.114263877709624e-07
	1.685339847277866e-05
	9.000000000000000e-07
	5.856484543223738e-08
 66	6.600000000000006e-11
	1.119821958085592e-05
	1.397438712914623e-07
	1.122049138647307e-05
	1.569076934956007e-05
	1.396195536811535e-07
	1.563426449285808e-05
	9.000000000000000e-07
	5.595931267572158e-08
 67	6.700000000000005e-11
	1.037382198917814e-05
	1.766186825967014e-07
	1.039878604080549e-05
	1.490618168728028e-05
	1.765152330606041e-07
	1.484662813392044e-05
	9.000000000000000e-07
	5.519205516166318e-08
 68	6.800000000000005e-11
	9.747852459510016e-06
	2.198028317574874e-07
	9.775023316567427e-06
	1.434910598665424e-05
	2.197270302954053e-07
	1.428656305443201e-05
	8.999999999999999e-07
	5.679905686646510e-08
 69	6.900000000000005e-11
	9.310039127236426e-06
	2.653475073519665e-07
	9.339146194518104e-06
	1.385518841138287e-05
	2.653085083781291e-07
	1.378948347420381e-05
	9.000000000000000e-07
	6.129748302972251e-08
 70	7.000000000000004e-11
	8.986900717132634e-06
	3.085771961996312e-07
	9.017872504781517e-06
	1.335314484542226e-05
	3.085858126047712e-07
	1.328418406503341e-05
	8.999999999999999e-07
	6.905128058429464e-08
 71	7.100000000000004e-11
	8.705149761769645e-06
	3.452722014436365e-07
	8.738019012224549e-06
	1.284552078379948e-05
	3.453396355224802e-07
	1.277339822118768e-05
	9.000000000000000e-07
	8.012924111129933e-08
 72	7.200000000000004e-11
	8.425010741006159e-06
	3.727551484257547e-07
	8.459814663610932e-06
	1.236234822469384e-05
	3.728914878383268e-07
	1.228728286175200e-05
	8.999999999999999e-07
	9.420259556836062e-08
 73	7.300000000000003e-11
	8.140924780656026e-06
	3.904497339371024e-07
	8.177652461147483e-06
	1.192587800653332e-05
	3.906626815681654e-07
	1.184809553132478e-05
	9.000000000000001e-07
	1.105274310775522e-07
 74	7.400000000000003e-11
	7.864766219671695e-06
	3.997124511644893e-07
	7.903360715861046e-06
	1.153944652642137e-05
	4.000067070986166e-07
	1.145910355924757e-05
	8.999999999999999e-07
	1.280345157096733e-07
 75	7.500000000000003e-11
	7.608806020181972e-06
	4.030661372573271e-07
	7.649195532511377e-06
	1.119357870411575e-05
	4.034436043783350e-07
	1.111075715920945e-05
	9.000000000000001e-07
	1.455120483113588e-07
 76	7.600000000000002e-11
	7.377566201604320e-06
	4.032094908969918e-07
	7.419692923842319e-06
	1.087644923605694e-05
	4.036701495138469e-07
	1.079119280277468e-05
	8.999999999999999e-07
	1.618308705067513e-07
 77	7.700000000000002e-11
	7.168414448275697e-06
	4.022174184389844e-07
	7.212244573099204e-06
	1.058024364459740e-05
	4.027604724841209e-07
	1.049259531689225e-05
	8.999999999999999e-07
	1.761437327041808e-07
 78	7.800000000000001e-11
	6.976008876581310e-06
	4.011873550414788e-07
	7.021525681758717e-06
	1.030190949530354e-05
	4.018122065018456e-07
	1.021192761595707e-05
	8.999999999999999e-07
	1.879995298049485e-07
 79	7.900000000000001e-11
	6.796041569448932e-06
	4.003399842218989e-07
	6.843232883141991e-06
	1.004090392381818e-05
	4.010467459883499e-07
	9.948658161459286e-06
	8.999999999999999e-07
	1.973461353813087e-07
 80	8.000000000000001e-11
	6.626484807018023e-06
	3.993896766728048e-07
	6.675334552719026e-06
	9.796903540683664e-06
	4.001791857706297e-07
	9.702463908237765e-06
	8.999999999999999e-07
	2.044364490766455e-07
 81	8.100000000000000e-11
	6.466926271693088e-06
	3.979432928316900e-07
	6.517412961869805e-06
	9.568840030655435e-06
	3.988167986563870e-07
	9.472269853157091e-06
	8.999999999999999e-07
	2.096832733985526e-07
 82	8.200000000000000e-11
	6.317387979018017e-06
	3.957568318380824e-07
	6.369487513361746e-06
	9.355077434767741e-06
	3.967156141163568e-07
	9.256433134824555e-06
	9.000000000000000e-07
	2.135176661229059e-07
 83	8.300000000000000e-11
	6.177588562051965e-06
	3.928047591957200e-07
	6.231277341289928e-06
	9.153959607670122e-06
	3.938498715992612e-07
	9.053294277180269e-06
	9.000000000000000e-07
	2.162920414655508e-07
 84	8.399999999999999e-11
	6.046833544649033e-06
	3.892173788013135e-07
	6.102089676526344e-06
	8.964162205875678e-06
	3.903495832205914e-07
	8.861528928572655e-06
	9.000000000000000e-07
	2.182432629795357e-07
 85	8.499999999999999e-11
	5.924246067081793e-06
	3.851768582338069e-07
	5.981048762509324e-06
	8.784722048450618e-06
	3.863966984257483e-07
	8.680175068773057e-06
	9.000000000000000e-07
	2.195058007945598e-07
 86	8.599999999999999e-11
	5.809005803384721e-06
	3.808400924751469e-07
	5.867334201635238e-06
	8.614890392439384e-06
	3.821480081498812e-07
	8.508484549307400e-06
	9.000000000000000e-07
	2.201508320611693e-07
 87	8.699999999999998e-11
	5.700444857559313e-06
	3.763111851155564e-07
	5.760277307998004e-06
	8.453987736661231e-06
	3.777075890215453e-07
	8.345777476904467e-06
	9.000000000000000e-07
	2.202266805075966e-07
 88	8.799999999999998e-11
	5.598023040202971e-06
	3.716507600060661e-07
	5.659337085965299e-06
	8.301341258479246e-06
	3.731360541050011e-07
	8.191380134606667e-06
	8.999999999999999e-07
	2.197851772940042e-07
 89	8.899999999999998e-11
	5.501267618225193e-06
	3.668974234023549e-07
	5.564040357048706e-06
	8.156292369298950e-06
	3.684719742717574e-07
	8.044633132626909e-06
	9.000000000000000e-07
	2.188903402302268e-07
 90	8.999999999999997e-11
	5.409736224165481e-06
	3.620835985266081e-07
	5.473944635532445e-06
	8.018227407921194e-06
	3.637477060328387e-07
	7.904922346887520e-06
	8.999999999999999e-07
	2.176143420301265e-07
 91	9.099999999999997e-11
	5.323012311754212e-06
	3.572408179877567e-07
	5.388633362536760e-06
	7.886597442656381e-06
	3.589946996493304e-07
	7.771698624370962e-06
	9.000000000000000e-07
	2.160286984810320e-07
 92	9.199999999999997e-11
	5.240714944465813e-06
	3.523983175227554e-07
	5.307725522752369e-06
	7.760919065229666e-06
	3.542421114383931e-07
	7.644478372042609e-06
	8.999999999999999e-07
	2.141969546534347e-07
 93	9.299999999999996e-11
	5.162504901334208e-06
	3.475805555769728e-07
	5.230881717241090e-06
	7.640763934921438e-06
	3.495143323372074e-07
	7.522832976104716e-06
	9.000000000000001e-07
	2.121715455269988e-07
 94	9.399999999999996e-11
	5.088081621953331e-06
	3.428066690853867e-07
	5.157801168387385e-06
	7.525746913916601e-06
	3.448304421259361e-07
	7.406376932294680e-06
	8.999999999999999e-07
	2.099943991148804e-07
 95	9.499999999999996e-11
	5.017175169496895e-06
	3.380917615748035e-07
	5.088213750967716e-06
	7.415517741946355e-06
	3.402054914537602e-07
	7.294759575435329e-06
	9.000000000000001e-07
	2.076994036570770e-07
 96	9.599999999999995e-11
	4.949539091074045e-06
	3.334485385494807e-07
	5.021872879801977e-06
	7.309756397111203e-06
	3.356521327561590e-07
	7.187660486659573e-06
	8.999999999999999e-07
	2.053149580791894e-07
 97	9.699999999999995e-11
	4.884946792000793e-06
	3.288881758827660e-07
	4.958551872302000e-06
	7.208170381717324e-06
	3.311814880796129e-07
	7.084786790421931e-06
	8.999999999999999e-07
	2.028656825938597e-07
 98	9.799999999999995e-11
	4.823190586417934e-06
	3.244203090268386e-07
	4.898042974628726e-06
	7.110492491695455e-06
	3.268031403170079e-07
	6.985870911255457e-06
	8.999999999999999e-07
	2.003732114584604e-07
 99	9.899999999999994e-11
	4.764081370639198e-06
	3.200526748135819e-07
	4.840157019223788e-06
	7.016478553108137e-06
	3.225247771575765e-07
	6.890668295704132e-06
	8.999999999999999e-07
	1.978564305579414e-07
 100	9.999999999999994e-11
	4.707447581292991e-06
	3.157909435178943e-07
	4.784722380656931e-06
	6.925905170833387e-06
	3.183520239165936e-07
	6.798955156461130e-06
	8.999999999999999e-07
	1.953315571658161e-07
 101	1.009999999999999e-10
	4.653133322742197e-06
	3.116389236424838e-07
	4.731583107761958e-06
	6.838567629221139e-06
	3.142886477326283e-07
	6.710526377377843e-06
	9.000000000000000e-07
	1.928122859587498e-07
 102	1.019999999999999e-10
	4.600996240501203e-06
	3.075989977974811e-07
	4.680596800980789e-06
	6.754277989450563e-06
	3.103369923939868e-07
	6.625193617360151e-06
	9.000000000000000e-07
	1.903100420526685e-07
 103	1.029999999999999e-10
	4.550905702620384e-06
	3.036725518787129e-07
	4.631632793656526e-06
	6.672863364019931e-06
	3.064984068031967e-07
	6.542783588779466e-06
	9.000000000000000e-07
	1.878342858460875e-07
 104	1.039999999999999e-10
	4.502741487285310e-06
	2.998602530669694e-07
	4.584570836700321e-06
	6.594164356181176e-06
	3.027735228418175e-07
	6.463136497632798e-06
	9.000000000000000e-07
	1.853928052696838e-07
 105	1.049999999999999e-10
	4.456392857963818e-06
	2.961621727201489e-07
	4.539300170519713e-06
	6.518033677027384e-06
	2.991623784736747e-07
	6.386104660006125e-06
	9.000000000000000e-07
	1.829919630302128e-07
 106	1.059999999999999e-10
	4.411757806555236e-06
	2.925778302369747e-07
	4.495718766187420e-06
	6.444334951629349e-06
	2.956644618138155e-07
	6.311551307947384e-06
	9.000000000000000e-07
	1.806368978896773e-07
 107	1.069999999999999e-10
	4.368742314646135e-06
	2.891062327387321e-07
	4.453732585966521e-06
	6.372941700181567e-06
	2.922787508161313e-07
	6.239349571139297e-06
	9.000000000000000e-07
	1.783316926646650e-07
 108	1.079999999999999e-10
	4.327259599172516e-06
	2.857459420054280e-07
	4.413254828771610e-06
	6.303736456343530e-06
	2.890037800332596e-07
	6.169381596055915e-06
	8.999999999999999e-07
	1.760795204193810e-07
 109	1.089999999999999e-10
	4.287229382076567e-06
	2.824951608570035e-07
	4.374205199568569e-06
	6.236609980793000e-06
	2.858377267622488e-07
	6.101537760024044e-06
	9.000000000000000e-07
	1.738827741330005e-07
 110	1.099999999999999e-10
	4.248577233586292e-06
	2.793518174422254e-07
	4.336509252210784e-06
	6.171460541867967e-06
	2.827784951419056e-07
	6.035715951864686e-06
	8.999999999999999e-07
	1.717431809039364e-07
 111	1.109999999999999e-10
	4.211234011192840e-06
	2.763136329483634e-07
	4.300097827950992e-06
	6.108193253825858e-06
	2.798237837429819e-07
	5.971820909802990e-06
	9.000000000000001e-07
	1.696619010146170e-07
 112	1.119999999999999e-10
	4.175135385410991e-06
	2.733781710354959e-07
	4.264906580893546e-06
	6.046719474885330e-06
	2.769711349259575e-07
	5.909763619061481e-06
	8.999999999999999e-07
	1.676396132063099e-07
 113	1.129999999999999e-10
	4.140221428370366e-06
	2.705428749558698e-07
	4.230875566485036e-06
	5.986956268477565e-06
	2.742179718868601e-07
	5.849460772698582e-06
	9.000000000000001e-07
	1.656765883572148e-07
 114	1.139999999999999e-10
	4.106436243355697e-06
	2.678050987639979e-07
	4.197948871104218e-06
	5.928825925944505e-06
	2.715616297773166e-07
	5.790834293925642e-06
	8.999999999999999e-07
	1.637727536911623e-07
 115	1.149999999999999e-10
	4.073727623729896e-06
	2.651621357498710e-07
	4.166074271106629e-06
	5.872255543300722e-06
	2.689993840352793e-07
	5.733810912458057e-06
	9.000000000000001e-07
	1.619277490005189e-07
 116	1.159999999999999e-10
	4.042046738990799e-06
	2.626112442199387e-07
	4.135202919031731e-06
	5.817176642387443e-06
	2.665284760648299e-07
	5.678321785192648e-06
	8.999999999999999e-07
	1.601409757477215e-07
 117	1.169999999999999e-10
	4.011347849638666e-06
	2.601496697166396e-07
	4.105289058645267e-06
	5.763524828057453e-06
	2.641461353658163e-07
	5.624302152862178e-06
	8.999999999999999e-07
	1.584116396310112e-07
 118	1.179999999999999e-10
	3.981588051668544e-06
	2.577746632546706e-07
	4.076289769640126e-06
	5.711239476001329e-06
	2.618495976929598e-07
	5.571691027316196e-06
	8.999999999999999e-07
	1.567387872132900e-07
 119	1.189999999999999e-10
	3.952727048805040e-06
	2.554834959774230e-07
	4.048164740114892e-06
	5.660263448357157e-06
	2.596361196441695e-07
	5.520430906605441e-06
	8.999999999999999e-07
	1.551213373130513e-07
 120	1.199999999999999e-10
	3.924726948655087e-06
	2.532734710343835e-07
	4.020876062995675e-06
	5.610542835348998e-06
	2.575029904748910e-07
	5.470467516131309e-06
	9.000000000000000e-07
	1.535581078881679e-07
 121	1.209999999999999e-10
	3.897552078704988e-06
	2.511419333757500e-07
	3.994388052312757e-06
	5.562026721099851e-06
	2.554475418332457e-07
	5.421749574007459e-06
	9.000000000000000e-07
	1.520478390749352e-07
 122	1.219999999999999e-10
	3.871168819042486e-06
	2.490862778556732e-07
	3.968667076200999e-06
	5.514666971257647e-06
	2.534671558080070e-07
	5.374228578268771e-06
	9.000000000000000e-07
	1.505892129256308e-07
 123	1.229999999999999e-10
	3.845545449864850e-06
	2.471039558115110e-07
	3.943681404678470e-06
	5.468418039817099e-06
	2.515592714578377e-07
	5.327858613310798e-06
	9.000000000000000e-07
	1.491808702771047e-07
 124	1.239999999999999e-10
	3.820652012569250e-06
	2.451924802276351e-07
	3.919401070996361e-06
	5.423236792713594e-06
	2.497213899307539e-07
	5.282596173139766e-06
	9.000000000000000e-07
	1.478214251077813e-07
 125	1.249999999999999e-10
	3.796460183403971e-06
	2.433494296328247e-07
	3.895797745536529e-06
	5.379082346231739e-06
	2.479510783225236e-07
	5.238399999480802e-06
	9.000000000000000e-07
	1.465094766964977e-07
 126	1.259999999999998e-10
	3.772943158549545e-06
	2.415724509242353e-07
	3.872844621123046e-06
	5.335915918732066e-06
	2.462459724661113e-07
	5.195230933251139e-06
	8.999999999999999e-07
	1.452436198669220e-07
 127	1.269999999999998e-10
	3.750075549399151e-06
	2.398592613113248e-07
	3.850516308514186e-06
	5.293700694489527e-06
	2.446037788449719e-07
	5.153051778192800e-06
	9.000000000000000e-07
	1.440224535730424e-07
 128	1.279999999999998e-10
	3.727833286858617e-06
	2.382076495382565e-07
	3.828788740892654e-06
	5.252401698556595e-06
	2.430222757882901e-07
	5.111827175575865e-06
	8.999999999999999e-07
	1.428445880509864e-07
 129	1.289999999999998e-10
	3.706193533657782e-06
	2.366154765021084e-07
	3.807639086344521e-06
	5.211985681605005e-06
	2.414993140653442e-07
	5.071523488924381e-06
	9.000000000000000e-07
	1.417086507325941e-07
 130	1.299999999999998e-10
	3.685134603857484e-06
	2.350806753564433e-07
	3.787045667510311e-06
	5.172421013751529e-06
	2.400328169683561e-07
	5.032108697768248e-06
	8.999999999999999e-07
	1.406132910897340e-07
 131	1.309999999999998e-10
	3.664635888876576e-06
	2.336012511771482e-07
	3.766987887732635e-06
	5.133677586468496e-06
	2.386207799603935e-07
	4.993552299519411e-06
	9.000000000000001e-07
	1.395571845562558e-07
 132	1.319999999999998e-10
	3.644677789440282e-06
	2.321752802620747e-07
	3.747446163102067e-06
	5.095726721798678e-06
	2.372612699595668e-07
	4.955825218689922e-06
	8.999999999999999e-07
	1.385390356561399e-07
 133	1.329999999999998e-10
	3.625241652893789e-06
	2.308009091303726e-07
	3.728401859845505e-06
	5.058541088206698e-06
	2.359524243250752e-07
	4.918899722781359e-06
	9.000000000000001e-07
	1.375575804503230e-07
 134	1.339999999999998e-10
	3.606309715363981e-06
	2.294763532794274e-07
	3.709837236540850e-06
	5.022094622483733e-06
	2.346924496027086e-07
	4.882749344259739e-06
	8.999999999999999e-07
	1.366115884004395e-07
 135	1.349999999999998e-10
	3.587865048302009e-06
	2.281998957482123e-07
	3.691735390691457e-06
	4.986362457181773e-06
	2.334796200783594e-07
	4.847348808088849e-06
	8.999999999999999e-07
	1.356998637348488e-07
 136	1.359999999999998e-10
	3.569891508994844e-06
	2.269698855277126e-07
	3.674080209249725e-06
	4.951320853098734e-06
	2.323122761800162e-07
	4.812673964340004e-06
	8.999999999999999e-07
	1.348212463909524e-07
 137	1.369999999999998e-10
	3.552373694685454e-06
	2.257847358528065e-07
	3.656856322730999e-06
	4.916947136377901e-06
	2.311888227624089e-07
	4.778701725438910e-06
	8.999999999999999e-07
	1.339746125979993e-07
 138	1.379999999999998e-10
	3.535296899982973e-06
	2.246429224051128e-07
	3.640049062600358e-06
	4.883219639828758e-06
	2.301077273035940e-07
	4.745410007653389e-06
	8.999999999999999e-07
	1.331588751561098e-07
 139	1.389999999999998e-10
	3.518647077276430e-06
	2.235429814522247e-07
	3.623644421647416e-06
	4.850117648118873e-06
	2.290675180387253e-07
	4.712777676468634e-06
	9.000000000000000e-07
	1.323729834598541e-07
 140	1.399999999999998e-10
	3.502410799892200e-06
	2.224835079450448e-07
	3.607629017090969e-06
	4.817621346524205e-06
	2.280667820526219e-07
	4.680784495534798e-06
	9.000000000000000e-07
	1.316159233083943e-07
 141	1.409999999999998e-10
	3.486575227760259e-06
	2.214631535915786e-07