Title: CKT1
Date: Thu Oct 19 16:39:31 2017
Plotname: Transient analysis
Flags: real
No. Variables: 3
No. Points: 6006    
Dimensions: 6,1001
Command: version 4.3.1
Variables:
 0 time S
 1 v(5) V
 2 v(6) V
Values:
 0	0.000000000000000e+00
	6.019492634581062e-07
	0.000000000000000e+00
 1	1.000000000000000e-12
	6.757209869188708e-05
	5.356750669407370e-05
 2	2.000000000000000e-12
	6.451053399552166e-05
	4.736467542019203e-05
 3	3.000000000000000e-12
	4.844219639119984e-05
	2.175185200214672e-05
 4	4.000000000000000e-12
	3.475897889213728e-05
	1.938515346104308e-06
 5	5.000000000000000e-12
	2.467792454229456e-05
	-1.003006202703514e-05
 6	5.999999999999999e-12
	1.758166094204387e-05
	-1.744770534795411e-05
 7	6.999999999999999e-12
	1.269299732924306e-05
	-2.218849935703612e-05
 8	8.000000000000000e-12
	9.062764407559122e-06
	-2.551725751319868e-05
 9	9.000000000000000e-12
	6.300275997810008e-06
	-2.788432483416298e-05
 10	9.999999999999999e-12
	4.157604180506396e-06
	-2.956864751819138e-05
 11	1.100000000000000e-11
	2.524464132886580e-06
	-3.069668553573975e-05
 12	1.200000000000000e-11
	1.218589912953331e-06
	-3.147064489012600e-05
 13	1.300000000000000e-11
	1.730670630750470e-07
	-3.196436623860345e-05
 14	1.400000000000000e-11
	-6.614027688045956e-07
	-3.223133059552620e-05
 15	1.500000000000000e-11
	-1.301964991926540e-06
	-3.228945208876232e-05
 16	1.600000000000000e-11
	-1.802121680052193e-06
	-3.219521345125703e-05
 17	1.700000000000000e-11
	-2.187606328684921e-06
	-3.197503978106100e-05
 18	1.800000000000000e-11
	-2.477135476729319e-06
	-3.164763907676758e-05
 19	1.900000000000000e-11
	-2.678781403110285e-06
	-3.121932593257819e-05
 20	2.000000000000000e-11
	-2.813661346046892e-06
	-3.071138716053884e-05
 21	2.100000000000000e-11
	-2.896235641944764e-06
	-3.013808460343489e-05
 22	2.200000000000000e-11
	-2.935932650408134e-06
	-2.950807034488213e-05
 23	2.300000000000000e-11
	-2.938260548072804e-06
	-2.882464721950824e-05
 24	2.400000000000000e-11
	-2.911943390262386e-06
	-2.809599549899221e-05
 25	2.500000000000000e-11
	-2.864733003181517e-06
	-2.733025727555409e-05
 26	2.600000000000000e-11
	-2.801156784050113e-06
	-2.653141396490008e-05
 27	2.700000000000000e-11
	-2.724330906141591e-06
	-2.570096292314702e-05
 28	2.800000000000000e-11
	-2.637545886954551e-06
	-2.484134642910031e-05
 29	2.900000000000000e-11
	-2.544224959920982e-06
	-2.395746101096791e-05
 30	3.000000000000000e-11
	-2.446205364489200e-06
	-2.305108467455257e-05
 31	3.100000000000000e-11
	-2.344854440297910e-06
	-2.212288400809058e-05
 32	3.200000000000001e-11
	-2.241298606953959e-06
	-2.117279529989733e-05
 33	3.300000000000001e-11
	-2.136679962363472e-06
	-2.020434743079059e-05
 34	3.400000000000001e-11
	-2.031595944412172e-06
	-1.921847016215598e-05
 35	3.500000000000001e-11
	-1.926495033954620e-06
	-1.821573767765806e-05
 36	3.600000000000002e-11
	-1.821773661304623e-06
	-1.719503743509359e-05
 37	3.700000000000002e-11
	-1.717616331160192e-06
	-1.615948408761474e-05
 38	3.800000000000002e-11
	-1.614153569383845e-06
	-1.510979807394459e-05
 39	3.900000000000003e-11
	-1.511466012267700e-06
	-1.404669570536309e-05
 40	4.000000000000003e-11
	-1.409726179869692e-06
	-1.296905052160907e-05
 41	4.100000000000003e-11
	-1.308827040074498e-06
	-1.187955500270606e-05
 42	4.200000000000004e-11
	-1.208754111044814e-06
	-1.077906886110794e-05
 43	4.300000000000004e-11
	-1.109488127490321e-06
	-9.668375605792169e-06
 44	4.400000000000004e-11
	-1.011099451578148e-06
	-8.547179568791568e-06
 45	4.500000000000004e-11
	-9.134767270672153e-07
	-7.417358822716744e-06
 46	4.600000000000005e-11
	-8.165611155665792e-07
	-6.280095796329048e-06
 47	4.700000000000005e-11
	-7.203192761355241e-07
	-5.136296323297759e-06
 48	4.800000000000005e-11
	-6.247821093757402e-07
	-3.986416200918717e-06
 49	4.900000000000006e-11
	-5.298834267906786e-07
	-2.831858330501255e-06
 50	5.000000000000006e-11
	-4.355572919280259e-07
	-1.673937937276655e-06
 51	5.100000000000006e-11
	-3.417764328719244e-07
	-5.136802658935727e-07
 52	5.200000000000007e-11
	-2.485544344199791e-07
	6.478772743647098e-07
 53	5.300000000000007e-11
	-1.558646235185107e-07
	1.809438696262455e-06
 54	5.400000000000007e-11
	-6.364209652854373e-08
	2.969820527390526e-06
 55	5.500000000000008e-11
	2.813408411762889e-08
	4.127913151220506e-06
 56	5.600000000000008e-11
	1.194619712753549e-07
	5.282343707638751e-06
 57	5.700000000000008e-11
	2.103423318298410e-07
	6.431519123784374e-06
 58	5.800000000000008e-11
	3.008394373264268e-07
	7.574702096413938e-06
 59	5.900000000000008e-11
	3.909715827205385e-07
	8.710757946413423e-06
 60	6.000000000000008e-11
	4.807474671930717e-07
	9.838280412497351e-06
 61	6.100000000000007e-11
	5.701542366634601e-07
	1.095497226537702e-05
 62	6.200000000000007e-11
	6.592560257599795e-07
	1.206087012704461e-05
 63	6.300000000000007e-11
	7.480716444280343e-07
	1.315488838679632e-05
 64	6.400000000000006e-11
	8.366193893892939e-07
	1.423590791853981e-05
 65	6.500000000000006e-11
	9.248842097695117e-07
	1.530056275111659e-05
 66	6.600000000000006e-11
	1.012928292829763e-06
	1.634995381405293e-05
 67	6.700000000000005e-11
	1.100773145015225e-06
	1.738311702619829e-05
 68	6.800000000000005e-11
	1.188441169114976e-06
	1.839912454223201e-05
 69	6.900000000000005e-11
	1.275937635519898e-06
	1.939441541972365e-05
 70	7.000000000000004e-11
	1.363309277848404e-06
	2.037020185349652e-05
 71	7.100000000000004e-11
	1.450585631681162e-06
	2.132607902871822e-05
 72	7.200000000000004e-11
	1.537794584590581e-06
	2.226130101528584e-05
 73	7.300000000000003e-11
	1.624965161585290e-06
	2.317260620552801e-05
 74	7.400000000000003e-11
	1.712137354286543e-06
	2.406073328929698e-05
 75	7.500000000000003e-11
	1.799347283414409e-06
	2.492608295007071e-05
 76	7.600000000000002e-11
	1.886632161435916e-06
	2.576810657210530e-05
 77	7.700000000000002e-11
	1.974046795020701e-06
	2.658408515222566e-05
 78	7.800000000000001e-11
	2.061641719110726e-06
	2.737394657851779e-05
 79	7.900000000000001e-11
	2.149456684038183e-06
	2.813899768737979e-05
 80	8.000000000000001e-11
	2.237544548329808e-06
	2.887887845318857e-05
 81	8.100000000000000e-11
	2.325989282417163e-06
	2.959156796453539e-05
 82	8.200000000000000e-11
	2.414879690320703e-06
	3.027595237910441e-05
 83	8.300000000000000e-11
	2.504253912279221e-06
	3.093427160637235e-05
 84	8.399999999999999e-11
	2.594190146853631e-06
	3.156633682411125e-05
 85	8.499999999999999e-11
	2.684804955209150e-06
	3.217091223058417e-05
 86	8.599999999999999e-11
	2.776271611223335e-06
	3.274572772555020e-05
 87	8.699999999999998e-11
	2.868616044765144e-06
	3.329393439989919e-05
 88	8.799999999999998e-11
	2.961956407269738e-06
	3.381550486810686e-05
 89	8.899999999999998e-11
	3.056443109760007e-06
	3.431003053268559e-05
 90	8.999999999999997e-11
	3.152412687989734e-06
	3.477409422422472e-05
 91	9.099999999999997e-11
	3.249858654561184e-06
	3.521170464978661e-05
 92	9.199999999999997e-11
	3.348962111790814e-06
	3.562300666015747e-05
 93	9.299999999999996e-11
	3.449923234532056e-06
	3.600818918612466e-05
 94	9.399999999999996e-11
	3.553319731466864e-06
	3.636356834390290e-05
 95	9.499999999999996e-11
	3.659136258213977e-06
	3.669320231421479e-05
 96	9.599999999999995e-11
	3.767636032519245e-06
	3.699769360308254e-05
 97	9.699999999999995e-11
	3.879133661946664e-06
	3.727746368815058e-05
 98	9.799999999999995e-11
	3.994459656106925e-06
	3.752997191360785e-05
 99	9.899999999999994e-11
	4.113763247332956e-06
	3.775815361373945e-05
 100	9.999999999999994e-11
	4.237382757274166e-06
	3.796351586441790e-05
 101	1.009999999999999e-10
	4.365829479274160e-06
	3.814682868732484e-05
 102	1.019999999999999e-10
	4.500304391837456e-06
	3.830689786128381e-05
 103	1.029999999999999e-10
	4.641359617150115e-06
	3.844585369045870e-05
 104	1.039999999999999e-10
	4.789434141833143e-06
	3.856613852059232e-05
 105	1.049999999999999e-10
	4.945399638276081e-06
	3.866911036822916e-05
 106	1.059999999999999e-10
	5.111035208859155e-06
	3.875524051433923e-05
 107	1.069999999999999e-10
	5.287816116270267e-06
	3.882662843547218e-05
 108	1.079999999999999e-10
	5.476343694696167e-06
	3.888671882446983e-05
 109	1.089999999999999e-10
	5.678201648238816e-06
	3.893797523902866e-05
 110	1.099999999999999e-10
	5.896147689700057e-06
	3.898311950273329e-05
 111	1.109999999999999e-10
	6.133783378307741e-06
	3.902603715040877e-05
 112	1.119999999999999e-10
	6.392044558613017e-06
	3.907138495008589e-05
 113	1.129999999999999e-10
	6.674053741751082e-06
	3.912394562566295e-05
 114	1.139999999999999e-10
	6.984401652117080e-06
	3.918991883807517e-05
 115	1.149999999999999e-10
	7.331838742269877e-06
	3.927949035877663e-05
 116	1.159999999999999e-10
	7.718176487233574e-06
	3.939923919816528e-05
 117	1.169999999999999e-10
	8.150248169414524e-06
	3.955941633433924e-05
 118	1.179999999999999e-10
	8.636536200666572e-06
	3.977260587868618e-05
 119	1.189999999999999e-10
	9.199415131501323e-06
	4.006765822887524e-05
 120	1.199999999999999e-10
	9.843499718981019e-06
	4.045557770103488e-05
 121	1.209999999999999e-10
	1.058588481799685e-05
	4.096123151409934e-05
 122	1.219999999999999e-10
	1.144813925128581e-05
	4.161565897465771e-05
 123	1.229999999999999e-10
	1.248333607358526e-05
	4.249111259672164e-05
 124	1.239999999999999e-10
	1.371713129400273e-05
	4.362518579461683e-05
 125	1.249999999999999e-10
	1.519683530788610e-05
	4.508207808621853e-05
 126	1.259999999999998e-10
	1.698940814408819e-05
	4.694938382221333e-05
 127	1.269999999999998e-10
	1.924455506767622e-05
	4.941562035983451e-05
 128	1.279999999999998e-10
	2.208611337568087e-05
	5.261971542361857e-05
 129	1.289999999999998e-10
	2.567846553287300e-05
	5.672566012671666e-05
 130	1.299999999999998e-10
	3.027604935982904e-05
	6.195742939466763e-05
 131	1.309999999999998e-10
	3.639985801239712e-05
	6.869814530073906e-05
 132	1.319999999999998e-10
	4.465552428025717e-05
	7.714211008252929e-05
 133	1.329999999999998e-10
	5.570013893404890e-05
	8.713622487702907e-05
 134	1.339999999999998e-10
	7.056278448418592e-05
	9.817462375898286e-05
 135	1.349999999999998e-10
	9.101149596647667e-05
	1.088877745188607e-04
 136	1.359999999999998e-10
	1.190176594584019e-04
	1.168045807608738e-04
 137	1.369999999999998e-10
	1.544030511780501e-04
	1.201272441715739e-04
 138	1.379999999999998e-10
	1.932341771242225e-04
	1.184246471873233e-04
 139	1.389999999999998e-10
	2.212794360036043e-04
	1.126427079027740e-04
 140	1.399999999999998e-10
	2.138499760330279e-04
	1.034506248686853e-04
 141	1.409999999999998e-10
	1.718576085846564e-04
	9.084254627211481e-05
 142	1.419999999999998e-10
	1.174595316304009e-04
	7.510751103917659e-05
 143	1.429999999999998e-10
	7.316758997251848e-05
	5.823453127012367e-05
 144	1.439999999999998e-10
	4.693141730803592e-05
	4.321280970005294e-05
 145	1.449999999999998e-10
	3.145381036359734e-05
	3.129973324339874e-05
 146	1.459999999999998e-10
	2.208129458194534e-05
	2.250019793943111e-05
 147	1.469999999999998e-10
	1.604552911583907e-05
	1.619007043431221e-05
 148	1.479999999999998e-10
	1.209722998878991e-05
	1.180514706112713e-05
 149	1.489999999999998e-10
	9.234579247272880e-06
	8.472089675721140e-06
 150	1.499999999999998e-10
	7.098539943456529e-06
	5.813539117300444e-06
 151	1.509999999999998e-10
	5.474917470698357e-06
	3.597885428767676e-06
 152	1.519999999999998e-10
	4.254973457054503e-06
	1.703476075684009e-06
 153	1.529999999999998e-10
	3.298677959894424e-06
	3.924599401934714e-09
 154	1.539999999999998e-10
	2.531197485055375e-06
	-1.563031080031603e-06
 155	1.549999999999997e-10
	1.907094469375029e-06
	-3.032444342184644e-06
 156	1.559999999999997e-10
	1.401313620119623e-06
	-4.422423584258335e-06
 157	1.569999999999997e-10
	9.812311348696554e-07
	-5.754263357371138e-06
 158	1.579999999999997e-10
	6.233723968272152e-07
	-7.042402738009310e-06
 159	1.589999999999997e-10
	3.146311760309720e-07
	-8.294079717632750e-06
 160	1.599999999999997e-10
	4.727118491173059e-08
	-9.512339128112102e-06
 161	1.609999999999997e-10
	-1.874125879062755e-07
	-1.070104672255340e-05
 162	1.619999999999997e-10
	-3.981321266353528e-07
	-1.186502794366868e-05
 163	1.629999999999997e-10
	-5.891931917785766e-07
	-1.300577210351923e-05
 164	1.639999999999997e-10
	-7.632657445455158e-07
	-1.412311234760617e-05
 165	1.649999999999997e-10
	-9.225292676822784e-07
	-1.521632136743691e-05
 166	1.659999999999997e-10
	-1.070581514869937e-06
	-1.628799670507087e-05
 167	1.669999999999997e-10
	-1.208876585777200e-06
	-1.733807191718631e-05
 168	1.679999999999997e-10
	-1.338344479969318e-06
	-1.836574715479593e-05
 169	1.689999999999997e-10
	-1.459124651948851e-06
	-1.936817921315476e-05
 170	1.699999999999997e-10
	-1.572974842876582e-06
	-2.034792132286818e-05
 171	1.709999999999997e-10
	-1.680374040850955e-06
	-2.130449927941374e-05
 172	1.719999999999997e-10
	-1.781688250070904e-06
	-2.223738818375190e-05
 173	1.729999999999997e-10
	-1.876317170506252e-06
	-2.314211832890185e-05
 174	1.739999999999997e-10
	-1.965438970263483e-06
	-2.402202668959836e-05
 175	1.749999999999997e-10
	-2.049226623254687e-06
	-2.487662063358670e-05
 176	1.759999999999997e-10
	-2.127825482657973e-06
	-2.570542671064837e-05
 177	1.769999999999997e-10
	-2.200677679112343e-06
	-2.650430336218837e-05
 178	1.779999999999997e-10
	-2.268491541553630e-06
	-2.727577593240193e-05
 179	1.789999999999997e-10
	-2.331495386316252e-06
	-2.802009429256574e-05
 180	1.799999999999997e-10
	-2.389794498216664e-06
	-2.873690586421872e-05
 181	1.809999999999997e-10
	-2.442986194335305e-06
	-2.942270087665796e-05
 182	1.819999999999997e-10
	-2.491492129182164e-06
	-3.007893112378403e-05
 183	1.829999999999997e-10
	-2.535648739759215e-06
	-3.070671702593496e-05
 184	1.839999999999996e-10
	-2.575570128198920e-06
	-3.130583691904124e-05
 185	1.849999999999996e-10
	-2.611020777110206e-06
	-3.187353562617659e-05
 186	1.859999999999996e-10
	-2.642200942815335e-06
	-3.241002093642369e-05
 187	1.869999999999996e-10
	-2.669535067902082e-06
	-3.291730721091195e-05
 188	1.879999999999996e-10
	-2.693143762873043e-06
	-3.339528705254638e-05
 189	1.889999999999996e-10
	-2.712927743249222e-06
	-3.384201791858806e-05
 190	1.899999999999996e-10
	-2.728902309663213e-06
	-3.425636330281325e-05
 191	1.909999999999996e-10
	-2.741538821404908e-06
	-3.464121516482463e-05
 192	1.919999999999996e-10
	-2.750950010932645e-06
	-3.499656472649833e-05
 193	1.929999999999996e-10
	-2.757131024079372e-06
	-3.532130565350319e-05
 194	1.939999999999996e-10
	-2.759944689403004e-06
	-3.561293476454545e-05
 195	1.949999999999996e-10
	-2.759874364290033e-06
	-3.587518605837882e-05
 196	1.959999999999996e-10
	-2.757013824642465e-06
	-3.610814499289281e-05
 197	1.969999999999996e-10
	-2.751418031679651e-06
	-3.631154513224281e-05
 198	1.979999999999996e-10
	-2.742825318576655e-06
	-3.648157155729995e-05
 199	1.989999999999996e-10
	-2.731712068451741e-06
	-3.662274894611464e-05
 200	1.999999999999996e-10
	-2.718148477073380e-06
	-3.673526595739951e-05
 201	2.009999999999996e-10
	-2.702199232320032e-06
	-3.681933758523518e-05
 202	2.019999999999996e-10
	-2.683582156120365e-06
	-3.687101001884361e-05
 203	2.029999999999996e-10
	-2.662677765263087e-06
	-3.689449212640511e-05
 204	2.039999999999996e-10
	-2.639560994110234e-06
	-3.689044330099574e-05
 205	2.049999999999996e-10
	-2.614273298715333e-06
	-3.685921291662801e-05
 206	2.059999999999996e-10
	-2.586587995092901e-06
	-3.679788830885762e-05
 207	2.069999999999996e-10
	-2.556727704353813e-06
	-3.670932580884001e-05
 208	2.079999999999996e-10
	-2.524796708159921e-06
	-3.659500802334369e-05
 209	2.089999999999996e-10
	-2.490815082238475e-06
	-3.645546799946216e-05
 210	2.099999999999996e-10
	-2.454595688068724e-06
	-3.628889439697640e-05
 211	2.109999999999996e-10
	-2.416226623291438e-06
	-3.609699209745172e-05
 212	2.119999999999996e-10
	-2.375838992198298e-06
	-3.588202486434671e-05
 213	2.129999999999995e-10
	-2.333432177886356e-06
	-3.564479966695785e-05
 214	2.139999999999995e-10
	-2.288847998524583e-06
	-3.538468424361993e-05
 215	2.149999999999995e-10
	-2.242046677651503e-06
	-3.510262902179940e-05
 216	2.159999999999995e-10
	-2.193187300857202e-06
	-3.480161835531801e-05
 217	2.169999999999995e-10
	-2.142245552992757e-06
	-3.448290955486502e-05
 218	2.179999999999995e-10
	-2.089083164646017e-06
	-3.414717831863501e-05
 219	2.189999999999995e-10
	-2.033518077024319e-06
	-3.379540214974924e-05
 220	2.199999999999995e-10
	-1.975739708388543e-06
	-3.343121967829871e-05
 221	2.209999999999995e-10
	-1.915688813006592e-06
	-3.305671277470159e-05
 222	2.219999999999995e-10
	-1.853234701273052e-06
	-3.267412359284399e-05
 223	2.229999999999995e-10
	-1.788002322271938e-06
	-3.228609719909789e-05
 224	2.239999999999995e-10
	-1.720211873912890e-06
	-3.189690578112146e-05
 225	2.249999999999995e-10
	-1.649738582332183e-06
	-3.151032747040990e-05
 226	2.259999999999995e-10
	-1.576434231790163e-06
	-3.113076238312486e-05
 227	2.269999999999995e-10
	-1.499600584853762e-06
	-3.076632607687568e-05
 228	2.279999999999995e-10
	-1.419476595537150e-06
	-3.042216594955407e-05
 229	2.289999999999995e-10
	-1.335791407077977e-06
	-3.010602108372263e-05
 230	2.299999999999995e-10
	-1.248215811427341e-06
	-2.982720510442411e-05
 231	2.309999999999995e-10
	-1.155692889406514e-06
	-2.960559680095288e-05
 232	2.319999999999995e-10
	-1.058111161876035e-06
	-2.945238243207931e-05
 233	2.329999999999995e-10
	-9.549263728306957e-07
	-2.938475711790116e-05
 234	2.339999999999995e-10
	-8.453218774790557e-07
	-2.942584623195109e-05
 235	2.349999999999995e-10
	-7.272884106166551e-07
	-2.962462997174301e-05
 236	2.359999999999995e-10
	-5.996765279451980e-07
	-3.001888502371136e-05
 237	2.369999999999995e-10
	-4.610517894481851e-07
	-3.065440797699701e-05
 238	2.379999999999995e-10
	-3.090557492099454e-07
	-3.160075513446874e-05
 239	2.389999999999995e-10
	-1.388045623837123e-07
	-3.299632421213524e-05
 240	2.399999999999995e-10
	5.469939887922795e-08
	-3.499405469818356e-05
 241	2.409999999999995e-10
	2.761901629609349e-07
	-3.774794768040461e-05
 242	2.419999999999995e-10
	5.337774934485127e-07
	-4.151076728622007e-05
 243	2.429999999999995e-10
	8.422473074682940e-07
	-4.673779255010180e-05
 244	2.439999999999995e-10
	1.222338587799097e-06
	-5.406609864383851e-05
 245	2.449999999999995e-10
	1.689649677611725e-06
	-6.395449475324302e-05
 246	2.459999999999995e-10
	2.268338745192189e-06
	-7.700995447491674e-05
 247	2.469999999999995e-10
	2.986565121104860e-06
	-9.361245297961313e-05
 248	2.479999999999995e-10
	3.861631123575228e-06
	-1.126958648525933e-04
 249	2.489999999999995e-10
	4.831683476339762e-06
	-1.298687927708550e-04
 250	2.499999999999994e-10
	5.798744715588839e-06
	-1.387866821889225e-04
 251	2.509999999999994e-10
	6.631861865839115e-06
	-1.334785570787506e-04
 252	2.519999999999994e-10
	7.174454689412963e-06
	-1.121706499177870e-04
 253	2.529999999999994e-10
	7.402698879448613e-06
	-8.448823766480764e-05
 254	2.539999999999994e-10
	7.309514973199996e-06
	-5.817334514272562e-05
 255	2.549999999999994e-10
	6.924920259249899e-06
	-3.736062552026992e-05
 256	2.559999999999994e-10
	6.294496386573390e-06
	-2.314105704194248e-05
 257	2.569999999999994e-10
	5.553132159857640e-06
	-1.318224928246827e-05
 258	2.579999999999994e-10
	4.793408160289970e-06
	-6.070633446875768e-06
 259	2.589999999999994e-10
	4.082588798580345e-06
	-8.569572943498605e-07
 260	2.599999999999994e-10
	3.472850510118409e-06
	2.982180925365980e-06
 261	2.609999999999994e-10
	2.970464707519761e-06
	5.994046603974774e-06
 262	2.619999999999994e-10
	2.567824346116034e-06
	8.459017494050157e-06
 263	2.629999999999994e-10
	2.254607755642397e-06
	1.053540324409512e-05
 264	2.639999999999994e-10
	2.024554245409363e-06
	1.231116480823906e-05
 265	2.649999999999994e-10
	1.860414853011336e-06
	1.387919960506683e-05
 266	2.659999999999994e-10
	1.746601126451571e-06
	1.530235674863912e-05
 267	2.669999999999994e-10
	1.673794666861388e-06
	1.661356905537323e-05
 268	2.679999999999994e-10
	1.636083028042470e-06
	1.783142985233869e-05
 269	2.689999999999994e-10
	1.626308737260522e-06
	1.897454834686425e-05
 270	2.699999999999994e-10
	1.636706858361151e-06
	2.006161130595879e-05
 271	2.709999999999994e-10
	1.663244755897265e-06
	2.110089450866131e-05
 272	2.719999999999994e-10
	1.703144709033091e-06
	2.209670352937249e-05
 273	2.729999999999994e-10
	1.754065728724934e-06
	2.305165902987134e-05
 274	2.739999999999994e-10
	1.812680462355434e-06
	2.397328319221829e-05
 275	2.749999999999994e-10
	1.877439872616441e-06
	2.486369241571998e-05
 276	2.759999999999994e-10
	1.947202394700252e-06
	2.572374170486318e-05
 277	2.769999999999994e-10
	2.021320678934505e-06
	2.655131245570752e-05
 278	2.779999999999994e-10
	2.098452159194814e-06
	2.735113493386405e-05
 279	2.789999999999993e-10
	2.178051863802186e-06
	2.812363899960519e-05
 280	2.799999999999993e-10
	2.259700008364976e-06
	2.886909784415073e-05
 281	2.809999999999993e-10
	2.343318603758133e-06
	2.958336712123725e-05
 282	2.819999999999993e-10
	2.428388359749983e-06
	3.027079712230321e-05
 283	2.829999999999993e-10
	2.514759214447823e-06
	3.093145859597315e-05
 284	2.839999999999993e-10
	2.602335938173574e-06
	3.156534974690363e-05
 285	2.849999999999993e-10
	2.691221111712925e-06
	3.216882702178977e-05
 286	2.859999999999993e-10
	2.781280693045483e-06
	3.274479007892840e-05
 287	2.869999999999993e-10
	2.872511376689268e-06
	3.329396477293595e-05
 288	2.879999999999993e-10
	2.964967909833181e-06
	3.381637433661109e-05
 289	2.889999999999993e-10
	3.058886129251404e-06
	3.430912316588578e-05
 290	2.899999999999993e-10
	3.154316545989465e-06
	3.477386729625925e-05
 291	2.909999999999993e-10
	3.251324898233845e-06
	3.521211548267219e-05
 292	2.919999999999993e-10
	3.350068645628195e-06
	3.562402340283934e-05
 293	2.929999999999993e-10
	3.450911253878804e-06
	3.600757751209101e-05
 294	2.939999999999993e-10
	3.554091155132570e-06
	3.636329155316406e-05
 295	2.949999999999993e-10
	3.659700686958153e-06
	3.669348531616784e-05
 296	2.959999999999993e-10
	3.768013071279837e-06
	3.699851927458710e-05
 297	2.969999999999993e-10
	3.879538420132379e-06
	3.727735496504773e-05
 298	2.979999999999993e-10
	3.994836252720877e-06
	3.752956824176261e-05
 299	2.989999999999993e-10
	4.113992634538252e-06
	3.775826500861614e-05
 300	2.999999999999993e-10
	4.237457719489549e-06
	3.796411594050699e-05
 301	3.009999999999993e-10
	4.365928683173702e-06
	3.814714427475667e-05
 302	3.019999999999993e-10
	4.500587655274359e-06
	3.830644388108787e-05
 303	3.029999999999993e-10
	4.641477035959932e-06
	3.844584097145062e-05
 304	3.039999999999993e-10
	4.789358350094728e-06
	3.856651908057159e-05
 305	3.049999999999993e-10
	4.945186467328594e-06
	3.866967026084160e-05
 306	3.059999999999993e-10
	5.111394649628022e-06
	3.875487230314163e-05
 307	3.069999999999993e-10
	5.287932372403897e-06
	3.882656517269698e-05
 308	3.079999999999992e-10
	5.476161611384991e-06
	3.888687271648767e-05
 309	3.089999999999992e-10
	5.677653807384507e-06
	3.893824013949150e-05
 310	3.099999999999992e-10
	5.896768267760024e-06
	3.898307902179600e-05
 311	3.109999999999992e-10
	6.134002269631134e-06
	3.902605005838944e-05
 312	3.119999999999992e-10
	6.391752541584195e-06
	3.907128283147846e-05
 313	3.129999999999992e-10
	6.673114644725115e-06
	3.912351997746117e-05
 314	3.139999999999992e-10
	6.985638969242505e-06
	3.919072732184751e-05
 315	3.149999999999992e-10
	7.332356748995241e-06
	3.927986485969532e-05
 316	3.159999999999992e-10
	7.717741203825173e-06
	3.939882719051821e-05
 317	3.169999999999992e-10
	8.148557726468689e-06
	3.955776634413580e-05
 318	3.179999999999992e-10
	8.639287198628120e-06
	3.977557835512482e-05
 319	3.189999999999992e-10
	9.200759283682813e-06
	4.006916660112339e-05
 320	3.199999999999992e-10
	9.842871228329719e-06
	4.045479337155563e-05
 321	3.209999999999992e-10
	1.058251910853786e-05
	4.095704907573383e-05
 322	3.219999999999992e-10
	1.145167234867685e-05
	4.162021468094429e-05
 323	3.229999999999992e-10
	1.248722622274528e-05
	4.249616678572622e-05
 324	3.239999999999992e-10
	1.371633717942145e-05
	4.362413172447856e-05
 325	3.249999999999992e-10
	1.518905607199966e-05
	4.507185953785528e-05
 326	3.259999999999992e-10
	1.699042684183490e-05
	4.695060783918075e-05
 327	3.269999999999992e-10
	1.925779596167885e-05
	4.943242153578895e-05
 328	3.279999999999992e-10
	2.208603974164643e-05
	5.261993871025325e-05
 329	3.289999999999992e-10
	2.565663454830325e-05
	5.670124369941377e-05
 330	3.299999999999992e-10
	3.024987729294188e-05
	6.192926064199340e-05
 331	3.309999999999992e-10
	3.645460984624268e-05
	6.874358541448059e-05
 332	3.319999999999992e-10
	4.466440258589939e-05
	7.715192368399918e-05
 333	3.329999999999992e-10
	5.562910439467510e-05
	8.711938136490107e-05
 334	3.339999999999992e-10
	7.036283679719014e-05
	9.817102264360900e-05
 335	3.349999999999992e-10
	9.123517696267786e-05
	1.088025145792471e-04
 336	3.359999999999991e-10
	1.190903115492580e-04
	1.167710153775205e-04
 337	3.369999999999991e-10
	1.543683668956297e-04
	1.201987166525306e-04
 338	3.379999999999991e-10
	1.934883147871478e-04
	1.185742074604010e-04
 339	3.389999999999991e-10
	2.199979136403783e-04
	1.125439182945928e-04
 340	3.399999999999991e-10
	2.132802509169498e-04
	1.034109711610029e-04
 341	3.409999999999991e-10
	1.718016751740501e-04
	9.087195506759556e-05
 342	3.419999999999991e-10
	1.170534986543157e-04
	7.515110977327912e-05
 343	3.429999999999991e-10
	7.379348926058241e-05
	5.831780224791690e-05
 344	3.439999999999991e-10
	4.713067408394957e-05
	4.326258280220546e-05
 345	3.449999999999991e-10
	3.143700739219854e-05
	3.128068231180294e-05
 346	3.459999999999991e-10
	2.198909582256429e-05
	2.242656774871029e-05
 347	3.469999999999991e-10
	1.609220206812219e-05
	1.623559583407567e-05
 348	3.479999999999991e-10
	1.211934923642512e-05
	1.182682866093440e-05
 349	3.489999999999991e-10
	9.233889054179734e-06
	8.471746755683274e-06
 350	3.499999999999991e-10
	7.085731842831367e-06
	5.802624847582614e-06
 351	3.509999999999991e-10
	5.477222986340119e-06
	3.599493565262099e-06
 352	3.519999999999991e-10
	4.260948130354377e-06
	1.707887754738492e-06
 353	3.529999999999991e-10
	3.299059632924881e-06
	4.225672575014512e-09
 354	3.539999999999991e-10
	2.528112348728867e-06
	-1.565113702925211e-06
 355	3.549999999999991e-10
	1.905562364730085e-06
	-3.033470507091309e-06
 356	3.559999999999991e-10
	1.403453549369444e-06
	-4.420975847178962e-06
 357	3.569999999999991e-10
	9.815575989341882e-07
	-5.754047292500646e-06
 358	3.579999999999991e-10
	6.224893180591969e-07
	-7.043068749207506e-06
 359	3.589999999999991e-10
	3.132901132637355e-07
	-8.295141316318191e-06
 360	3.599999999999991e-10
	4.816114843406832e-08
	-9.511529786027757e-06
 361	3.609999999999991e-10
	-1.872095348573254e-07
	-1.070085755284663e-05
 362	3.619999999999991e-10
	-3.984176268702961e-07
	-1.186538301136713e-05
 363	3.629999999999991e-10
	-5.898243729029234e-07
	-1.300662793159289e-05
 364	3.639999999999991e-10
	-7.628283531595625e-07
	-1.412238682201665e-05
 365	3.649999999999990e-10
	-9.223994580780755e-07
	-1.521609059998232e-05
 366	3.659999999999990e-10
	-1.070691488503000e-06
	-1.628825792970224e-05
 367	3.669999999999990e-10
	-1.209177565870117e-06
	-1.733883164146720e-05
 368	3.679999999999990e-10
	-1.338066270802073e-06
	-1.836492258163627e-05
 369	3.689999999999990e-10
	-1.459023094481685e-06
	-1.936785871091466e-05
 370	3.699999999999990e-10
	-1.573027263429447e-06
	-2.034812227436379e-05
 371	3.709999999999990e-10
	-1.680564171195030e-06
	-2.130524088122468e-05
 372	3.719999999999990e-10
	-1.781457093877613e-06
	-2.223640062951325e-05
 373	3.729999999999990e-10
	-1.876218451601333e-06
	-2.314167988294852e-05
 374	3.739999999999990e-10
	-1.965464743355209e-06
	-2.402215707855740e-05
 375	3.749999999999990e-10
	-2.049370703168980e-06
	-2.487733876994414e-05
 376	3.759999999999990e-10
	-2.127725641311522e-06
	-2.570489574129663e-05
 377	3.769999999999990e-10
	-2.200572552685990e-06
	-2.650373512653165e-05
 378	3.779999999999990e-10
	-2.268498080663068e-06
	-2.727581926768136e-05
 379	3.789999999999990e-10
	-2.331609429996193e-06
	-2.802076362674307e-05
 380	3.799999999999990e-10
	-2.389802819268417e-06
	-2.873694613936307e-05
 381	3.809999999999990e-10
	-2.442875152821312e-06
	-2.942200223794737e-05
 382	3.819999999999990e-10
	-2.491482606159929e-06
	-3.007887534804427e-05
 383	3.829999999999990e-10
	-2.535736321862532e-06
	-3.070731343098621e-05
 384	3.839999999999990e-10
	-2.575666359997395e-06
	-3.130650371060669e-05
 385	3.849999999999990e-10
	-2.610908130324346e-06
	-3.187271239350054e-05
 386	3.859999999999990e-10
	-2.642178848988670e-06
	-3.240986000159458e-05
 387	3.869999999999990e-10
	-2.669598803488731e-06
	-3.291781336289456e-05
 388	3.879999999999990e-10
	-2.693288611218615e-06
	-3.339646383998743e-05
 389	3.889999999999990e-10
	-2.712817617479688e-06
	-3.384107942399004e-05
 390	3.899999999999990e-10
	-2.728871346595831e-06
	-3.425609619152838e-05
 391	3.909999999999990e-10
	-2.741582522789505e-06
	-3.464162033536488e-05
 392	3.919999999999990e-10
	-2.751064049131890e-06
	-3.499764196311951e-05
 393	3.929999999999990e-10
	-2.757025563837360e-06
	-3.532026412894538e-05
 394	3.939999999999989e-10
	-2.759907840823757e-06
	-3.561256465773506e-05
 395	3.949999999999989e-10
	-2.759902313211838e-06
	-3.587548461935876e-05
 396	3.959999999999989e-10
	-2.757103019267708e-06
	-3.610910833204757e-05
 397	3.969999999999989e-10
	-2.751317215682888e-06
	-3.631041684947734e-05
 398	3.979999999999989e-10
	-2.742784348163334e-06
	-3.648110597623911e-05
 399	3.989999999999989e-10
	-2.731728028821489e-06
	-3.662293940862897e-05
 400	3.999999999999989e-10
	-2.718218738153335e-06
	-3.673610448186800e-05
 401	4.009999999999989e-10
	-2.702129744873092e-06
	-3.681848937661463e-05
 402	4.019999999999989e-10
	-2.683537605483163e-06
	-3.687046203392343e-05
 403	4.029999999999989e-10
	-2.662684479497935e-06
	-3.689457715569250e-05
 404	4.039999999999989e-10