Title: CKT1
Date: Thu Mar 28 17:01:40 2019
Plotname: Transient analysis
Flags: real
No. Variables: 7
No. Points: 5001    
Command: version 4.3.1
Variables:
 0 time S
 1 LC#branch A
 2 LJPM#branch A
 3 v(1) V
 4 v(3.X3) V
 5 v(7.X0)/2/pi V
 6 v(7.X3)/2/pi V
Values:
 0	0.000000000000000e+00
	0.000000000000000e+00
	0.000000000000000e+00
	1.277872395902753e-17
	7.162437115717102e-07
	0.000000000000000e+00
	0.000000000000000e+00
 1	1.000000000000000e-12
	2.428694645683157e-07
	4.500000000000000e-07
	4.628298785552789e-16
	1.595249018775684e-05
	4.340452160921835e-03
	4.340578316531106e-03
 2	2.000000000000000e-12
	1.670359017091494e-06
	1.500000000000001e-07
	1.024080373894877e-14
	2.698297080948011e-05
	1.498656791275847e-02
	1.498905378679295e-02
 3	3.000000000000000e-12
	3.443697014328699e-06
	-1.500000000000002e-07
	1.393090139565766e-13
	3.377999654977565e-05
	2.966615085420651e-02
	2.968024726573360e-02
 4	4.000000000000000e-12
	5.264536883987684e-06
	-4.499999999999999e-07
	1.630264596886892e-12
	3.677345680090466e-05
	4.668733930742928e-02
	4.673933140477429e-02
 5	5.000000000000000e-12
	6.910557564164952e-06
	-7.500000000000000e-07
	9.349823433846690e-12
	3.691087976003438e-05
	6.446897638239218e-02
	6.460482000715866e-02
 6	5.999999999999999e-12
	7.913638409708904e-06
	-7.500000000000000e-07
	1.234542253269784e-10
	3.442636359908367e-05
	8.144807660287014e-02
	8.178440094515024e-02
 7	6.999999999999999e-12
	8.507227905038327e-06
	-7.500000000000000e-07
	1.069294989101026e-09
	3.071828067003151e-05
	9.676727611986349e-02
	9.745717651302846e-02
 8	8.000000000000000e-12
	8.731236896636834e-06
	-7.500000000000000e-07
	6.948443981292519e-09
	2.631063805072920e-05
	1.100064365645620e-01
	1.112466549846108e-01
 9	9.000000000000000e-12
	8.644283648746264e-06
	-7.500000000000000e-07
	3.879832724522931e-08
	2.163253630324326e-05
	1.208005501564852e-01
	1.228392660249673e-01
 10	9.999999999999999e-12
	8.351454092216291e-06
	-7.500000000000000e-07
	1.862202349747134e-07
	1.705465388946363e-05
	1.290783898182081e-01
	1.321938282001796e-01
 11	1.100000000000000e-11
	7.959451802769555e-06
	-7.500000000000000e-07
	7.685808724639682e-07
	1.281816509946557e-05
	1.349378490568650e-01
	1.394171080167648e-01
 12	1.200000000000000e-11
	7.559563547239730e-06
	-7.500000000000000e-07
	2.728765231425212e-06
	9.060307969919321e-06
	1.385935230292279e-01
	1.447073750900321e-01
 13	1.300000000000000e-11
	7.218093207776083e-06
	-7.500000000000000e-07
	8.337250574578293e-06
	5.841924091173601e-06
	1.403345501876761e-01
	1.483107978128421e-01
 14	1.400000000000000e-11
	6.973523334953141e-06
	-7.500000000000000e-07
	2.192919026057223e-05
	3.171888536822676e-06
	1.404926540103943e-01
	1.504904047887868e-01
 15	1.500000000000000e-11
	6.838710318056882e-06
	-7.500000000000000e-07
	4.967297932928448e-05
	1.026310993335317e-06
	1.394193673144702e-01
	1.515055960721659e-01
 16	1.600000000000000e-11
	6.806176028791061e-06
	-7.500000000000000e-07
	9.692972033352299e-05
	-6.376361841973444e-07
	1.374718535607803e-01
	1.515996408807836e-01
 17	1.700000000000000e-11
	6.854773447393503e-06
	-7.500000000000000e-07
	1.629877956506841e-04
	-1.872417487320648e-06
	1.350076208234141e-01
	1.509927678943144e-01
 18	1.800000000000000e-11
	6.956409084038943e-06
	-7.500000000000000e-07
	2.362178048938487e-04
	-2.734213911289832e-06
	1.323884287409761e-01
	1.498789360728571e-01
 19	1.900000000000000e-11
	7.081924961502607e-06
	-7.500000000000000e-07
	2.951202376229241e-04
	-3.279309703554409e-06
	1.299916442354677e-01
	1.484249108077312e-01
 20	2.000000000000000e-11
	7.205605932717102e-06
	-7.500000000000000e-07
	3.178715342536082e-04
	-3.561940898395849e-06
	1.282232423889776e-01
	1.467707340627501e-01
 21	2.100000000000000e-11
	7.308076729757853e-06
	-7.500000000000000e-07
	2.951713897407021e-04
	-3.633013265123665e-06
	1.275227304134496e-01
	1.450310247944978e-01
 22	2.200000000000000e-11
	7.377598185019383e-06
	-7.500000000000000e-07
	2.362852406274593e-04
	-3.539315380677787e-06
	1.283502075067797e-01
	1.432967796839985e-01
 23	2.300000000000000e-11
	7.409966853278711e-06
	-7.500000000000000e-07
	1.630331469783580e-04
	-3.323015897498054e-06
	1.311521580085676e-01
	1.416374857244807e-01
 24	2.400000000000000e-11
	7.407359255221321e-06
	-7.500000000000000e-07
	9.693933153038153e-05
	-3.021343192174623e-06
	1.363137374681430e-01
	1.401034318374501e-01
 25	2.500000000000000e-11
	7.376531556693347e-06
	-7.500000000000000e-07
	4.965825981192664e-05
	-2.666409601389763e-06
	1.441149580224469e-01
	1.387281404513848e-01
 26	2.600000000000000e-11
	7.326785701097545e-06
	-7.500000000000000e-07
	2.190850440524502e-05
	-2.285173066711491e-06
	1.547094120523370e-01
	1.375308508550243e-01
 27	2.700000000000000e-11
	7.268053622652178e-06
	-7.500000000000000e-07
	8.321687085099521e-06
	-1.899537474339350e-06
	1.681349651862271e-01
	1.365189875640789e-01
 28	2.800000000000000e-11
	7.209351784993965e-06
	-7.500000000000000e-07
	2.720356359564501e-06
	-1.526588793829315e-06
	1.843509102079061e-01
	1.356905473304246e-01
 29	2.900000000000000e-11
	7.157742784401465e-06
	-7.500000000000000e-07
	7.650505142172781e-07
	-1.178954562256245e-06
	2.032835852131026e-01
	1.350363421344889e-01
 30	3.000000000000000e-11
	7.117831346672348e-06
	-7.500000000000000e-07
	1.850285262405140e-07
	-8.652643327734779e-07
	2.248592352097647e-01
	1.345420439241417e-01
 31	3.100000000000000e-11
	7.091735044716613e-06
	-7.500000000000000e-07
	3.846890892568150e-08
	-5.906813757251830e-07
	2.490113105452501e-01
	1.341899894587976e-01
 32	3.200000000000001e-11
	7.079414035404300e-06
	-7.500000000000000e-07
	6.873039702260662e-09
	-3.574724894953108e-07
	2.756657895949522e-01
	1.339607188149713e-01
 33	3.300000000000001e-11
	7.079220192833847e-06
	-7.500000000000000e-07
	1.054896438333913e-09
	-1.655833288247775e-07
	3.047228767778413e-01
	1.338342370036417e-01
 34	3.400000000000001e-11
	7.088529655639050e-06
	-7.500000000000000e-07
	1.390456295756010e-10
	-1.319049250090093e-08
	3.360560885215453e-01
	1.337910029838390e-01
 35	3.500000000000001e-11
	7.104346144753870e-06
	-7.500000000000000e-07
	1.573501246319875e-11
	1.027923560784276e-07
	3.695379396979639e-01
	1.338126628055870e-01
 36	3.600000000000002e-11
	7.123796547071885e-06
	-7.500000000000000e-07
	1.528361716625505e-12
	1.862699984826633e-07
	4.050839896583753e-01
	1.338825528978549e-01
 37	3.700000000000002e-11
	7.144477044213804e-06
	-7.500000000000000e-07
	1.273892719520380e-13
	2.415913999941089e-07
	4.426955273636143e-01
	1.339860053838222e-01
 38	3.800000000000002e-11
	7.164641186111758e-06
	-7.500000000000000e-07
	9.109538392673629e-15
	2.732479884952231e-07
	4.824797495784656e-01
	1.341104899439903e-01
 39	3.900000000000003e-11
	7.183246767327161e-06
	-7.500000000000000e-07
	5.587738436809922e-16
	2.856417519075511e-07
	5.246307188966350e-01
	1.342456266486386e-01
 40	4.000000000000003e-11
	7.199894425445427e-06
	-7.500000000000000e-07
	2.939549560286678e-17
	2.829168546398559e-07
	5.693596069466462e-01
	1.343831020000714e-01
 41	4.100000000000003e-11
	7.214697696310903e-06
	-7.500000000000000e-07
	1.326074793858850e-18
	2.688463218729668e-07
	6.167690035568987e-01
	1.345165168586167e-01
 42	4.200000000000004e-11
	7.228123314174055e-06
	-7.500000000000000e-07
	5.129122788644462e-20
	2.467644290660009e-07
	6.666793061712252e-01
	1.346411906191655e-01
 43	4.300000000000004e-11
	7.240834061053165e-06
	-7.500000000000000e-07
	1.700820038783151e-21
	2.195354892751889e-07
	7.184415284772259e-01
	1.347539414907746e-01
 44	4.400000000000004e-11
	7.253556882384027e-06
	-7.500000000000000e-07
	4.834732172805178e-23
	1.895504525834579e-07
	7.708062759179874e-01
	1.348528584053997e-01
 45	4.500000000000004e-11
	7.266988529359624e-06
	-7.500000000000000e-07
	1.178011107219151e-24
	1.587438389789262e-07
	8.219391973607199e-01
	1.349370761975184e-01
 46	4.600000000000005e-11
	7.281741442473754e-06
	-7.500000000000000e-07
	2.460130997724062e-26
	1.286247851205824e-07
	8.696432208804975e-01
	1.350065623841921e-01
 47	4.700000000000005e-11
	7.298325175046287e-06
	-7.500000000000000e-07
	4.403238300204388e-28
	1.003172248110906e-07
	9.117573221624284e-01
	1.350619211670139e-01
 48	4.800000000000005e-11
	7.317154028938338e-06
	-7.500000000000000e-07
	6.754110900101661e-30
	7.460533368750139e-08
	9.466000322061759e-01
	1.351042181375227e-01
 49	4.900000000000006e-11
	7.338569887907481e-06
	-7.500000000000000e-07
	8.878229740581095e-32
	5.198129718312527e-08
	9.732931604083035e-01
	1.351348275208773e-01
 50	5.000000000000006e-11
	7.362870188714256e-06
	-7.500000000000000e-07
	1.000068413017688e-33
	3.269319700770298e-08
	9.918662586923402e-01
	1.351553025483309e-01
 51	5.100000000000006e-11
	7.390333878817721e-06
	-7.500000000000000e-07
	9.653027457003479e-36
	1.679137421403135e-08
	1.003150422135991e+00
	1.351672686188968e-01
 52	5.200000000000007e-11
	7.421242086886366e-06
	-7.500000000000000e-07
	7.983904184035488e-38
	4.172051033729351e-09
	1.008543367028363e+00
	1.351723382190950e-01
 53	5.300000000000007e-11
	7.455893949845151e-06
	-7.500000000000000e-07
	5.658147622457981e-40
	-5.382681826909119e-09
	1.009737918555933e+00
	1.351720460591884e-01
 54	5.400000000000007e-11
	7.494620540503864e-06
	-7.500000000000000e-07
	3.435826295350524e-42
	-1.216914545783699e-08
	1.008477139033362e+00
	1.351678025152402e-01
 55	5.500000000000008e-11
	7.537800360468360e-06
	-7.500000000000000e-07
	1.787632340201171e-44
	-1.653103071917300e-08
	1.006365356029742e+00
	1.351608632140844e-01
 56	5.600000000000008e-11
	7.585878109262418e-06
	-7.500000000000000e-07
	7.969086419958754e-47
	-1.883324205137492e-08
	1.004741410348439e+00
	1.351523124487974e-01
 57	5.700000000000008e-11
	7.639384690885760e-06
	-7.500000000000000e-07
	3.043802212088962e-49
	-1.944064734507514e-08
	1.004608474619016e+00
	1.351430580570371e-01
 58	5.800000000000008e-11
	7.698951600380630e-06
	-7.500000000000000e-07
	9.960862481679749e-52
	-1.870158098261534e-08
	1.006609301765332e+00
	1.351338354266875e-01
 59	5.900000000000008e-11
	7.765308584204606e-06
	-7.500000000000000e-07
	2.792838790445166e-54
	-1.693579410540850e-08
	1.011034257775932e+00
	1.351252184041863e-01
 60	6.000000000000008e-11
	7.839252057742510e-06
	-7.500000000000000e-07
	6.709027876187853e-57
	-1.442642001271281e-08
	1.017851378965241e+00
	1.351176350593584e-01
 61	6.100000000000007e-11
	7.921575534596692e-06
	-7.500000000000000e-07
	1.380813589879201e-59
	-1.141542941869390e-08
	1.026751984231352e+00
	1.351113864920667e-01
 62	6.200000000000007e-11
	8.012963428140416e-06
	-7.500000000000000e-07
	2.434835409316107e-62
	-8.101993805755385e-09
	1.037209632519185e+00
	1.351066671336563e-01
 63	6.300000000000007e-11
	8.113864419232634e-06
	-7.500000000000000e-07
	3.678417513273247e-65
	-4.643156050123012e-09
	1.048551669342478e+00
	1.351035852821153e-01
 64	6.400000000000006e-11
	8.224375158510749e-06
	-7.500000000000000e-07
	4.761100790865182e-68
	-1.156223709819513e-09
	1.060040276400253e+00
	1.351021828965027e-01
 65	6.500000000000006e-11
	8.344172578020642e-06
	-7.500000000000000e-07
	5.279673129696044e-71
	2.277652650373989e-09
	1.070955656558622e+00
	1.351024539475480e-01
 66	6.600000000000006e-11
	8.472528359657535e-06
	-7.500000000000000e-07
	5.016012471130367e-74
	5.609182185689807e-09
	1.080671052926433e+00
	1.351043608640187e-01
 67	6.700000000000005e-11
	8.608421878141319e-06
	-7.500000000000000e-07
	4.082826274126481e-77
	8.816294976935158e-09
	1.088709919742466e+00
	1.351078488184167e-01
 68	6.800000000000005e-11
	8.750743497420246e-06
	-7.500000000000000e-07
	2.847166731699678e-80
	1.189944170863889e-08
	1.094779411509587e+00
	1.351128577545254e-01
 69	6.900000000000005e-11
	8.898556851092025e-06
	-7.500000000000000e-07
	1.701036921485808e-83
	1.487701471693414e-08
	1.098779320764829e+00
	1.351193321712616e-01
 70	7.000000000000004e-11
	9.051374284363025e-06
	-7.500000000000000e-07
	8.706882463152517e-87
	1.778098610667221e-08
	1.100789567865495e+00
	1.351272287446534e-01
 71	7.100000000000004e-11
	9.209397780093128e-06
	-7.500000000000000e-07
	3.818203713997188e-90
	2.065279067528364e-08
	1.101041427204625e+00
	1.351365218996178e-01
 72	7.200000000000004e-11
	9.373687612434324e-06
	-7.500000000000000e-07
	1.434506251858890e-93
	2.353944059295025e-08
	1.099878155165742e+00
	1.351472074467651e-01
 73	7.300000000000003e-11
	9.546238370509959e-06
	-7.500000000000000e-07
	4.617344444674446e-97
	2.648985017334894e-08
	1.097710343941901e+00
	1.351593043910732e-01
 74	7.400000000000003e-11
	9.729961172851232e-06
	-7.500000000000000e-07
	1.273292526268548e-100
	2.955137313760790e-08
	1.094970774384913e+00
	1.351728550146125e-01
 75	7.500000000000003e-11
	9.928586724140356e-06
	-7.500000000000000e-07
	3.008221864995814e-104
	3.276660649749939e-08
	1.092072983846591e+00
	1.351879233491788e-01
 76	7.600000000000002e-11
	1.014651309615704e-05
	-7.500000000000000e-07
	6.088874344017207e-108
	3.617058390716709e-08
	1.089377102435632e+00
	1.352045921974768e-01
 77	7.700000000000002e-11
	1.038862389649963e-05
	-7.500000000000000e-07
	1.055867430374213e-111
	3.978855191528670e-08
	1.087165577742681e+00
	1.352229589379745e-01
 78	7.800000000000001e-11
	1.066009829624230e-05
	-7.500000000000000e-07
	1.568652714283109e-115
	4.363457767535892e-08
	1.085630157348657e+00
	1.352431304554102e-01
 79	7.900000000000001e-11
	1.096622748134198e-05
	-7.500000000000000e-07
	1.996590832064669e-119
	4.771125993741200e-08
	1.084870059708443e+00
	1.352652176647614e-01
 80	8.000000000000001e-11
	1.131224648561204e-05
	-7.500000000000000e-07
	2.177188581062653e-123
	5.201079429416632e-08
	1.084899884833922e+00
	1.352893302228835e-01
 81	8.100000000000000e-11
	1.170318905016731e-05
	-7.500000000000000e-07
	2.033984343927780e-127
	5.651757326042856e-08
	1.085664753878804e+00
	1.353155721263774e-01
 82	8.200000000000000e-11
	1.214377552449389e-05
	-7.500000000000000e-07
	1.627959662857636e-131
	6.121238475856850e-08
	1.087059595832904e+00
	1.353440389532738e-01
 83	8.300000000000000e-11
	1.263834308593890e-05
	-7.500000000000000e-07
	1.116308059177833e-135
	6.607812031917133e-08
	1.088949470512536e+00
	1.353748175000543e-01
 84	8.399999999999999e-11
	1.319081036643387e-05
	-7.500000000000000e-07
	6.557960407005464e-140
	7.110673515114024e-08
	1.091188263964956e+00
	1.354079884817442e-01
 85	8.499999999999999e-11
	1.380461955061725e-05
	-7.500000000000000e-07
	3.300637017016465e-144
	7.630703898672561e-08
	1.093633868696045e+00
	1.354436327986494e-01
 86	8.599999999999999e-11
	1.448251092274071e-05
	-7.500000000000000e-07
	1.423216378050879e-148
	8.171276318844467e-08
	1.096158882815968e+00
	1.354818416374283e-01
 87	8.699999999999998e-11
	1.522587221915918e-05
	-7.500000000000000e-07
	5.257608515163595e-153
	8.739026747537398e-08
	1.098656747967174e+00
	1.355227303861747e-01
 88	8.799999999999998e-11
	1.603331778151617e-05
	-7.500000000000000e-07
	1.663985986235426e-157
	9.344523415958546e-08
	1.101043949676227e+00
	1.355664560315856e-01
 89	8.899999999999998e-11
	1.689818573604848e-05
	-7.500000000000000e-07
	4.511855255265350e-162
	1.000277547039028e-07
	1.103259336970633e+00
	1.356132374046981e-01
 90	8.999999999999997e-11
	1.780493079689200e-05
	-7.500000000000000e-07
	1.048104778148755e-166
	1.073353353827687e-07
	1.105261758360059e+00
	1.356633773833444e-01
 91	9.099999999999997e-11
	1.872504950656781e-05
	-7.500000000000000e-07
	2.085922981630314e-171
	1.156135127133711e-07
	1.107027096218198e+00
	1.357172859702511e-01
 92	9.199999999999997e-11
	1.961412191219957e-05
	-7.500000000000000e-07
	3.556606718317337e-176
	1.251539355625894e-07
	1.108545490285576e+00
	1.357755030563039e-01
 93	9.299999999999996e-11
	2.041228208548504e-05
	-7.500000000000000e-07
	5.195381127936333e-181
	1.362898875042770e-07
	1.109819169618349e+00
	1.358387196374937e-01
 94	9.399999999999996e-11
	2.105005283569808e-05
	-7.500000000000000e-07
	6.501940045834297e-186
	1.493892376852848e-07
	1.110860951487518e+00
	1.359077962448171e-01
 95	9.499999999999996e-11
	2.145943629538981e-05
	-7.500000000000000e-07
	6.971279238005914e-191
	1.648446894568186e-07
	1.111693185039422e+00
	1.359837773119387e-01
 96	9.599999999999995e-11
	2.158720733785281e-05
	-7.500000000000000e-07
	6.403626008753737e-196
	1.830609594536640e-07
	1.112346758353731e+00
	1.360679000849938e-01
 97	9.699999999999995e-11
	2.140555204101564e-05
	-7.500000000000000e-07
	5.039452977687465e-201
	2.044382514251310e-07
	1.112859762755526e+00
	1.361615964364008e-01
 98	9.799999999999995e-11
	2.091611690611868e-05
	-7.500000000000000e-07
	3.397698093280273e-206
	2.293512438756121e-07
	1.113275505468383e+00
	1.362664856020478e-01
 99	9.899999999999994e-11
	2.014663634925813e-05
	-7.500000000000000e-07
	1.962592452189536e-211
	2.581229755743037e-07
	1.113639747973008e+00
	1.363843555234963e-01
 100	9.999999999999994e-11
	1.914239877455073e-05
	-7.500000000000000e-07
	9.712240060395090e-217
	2.909936354033185e-07
	1.113997275100128e+00
	1.365171303295112e-01
 101	1.009999999999999e-10
	1.795614711767108e-05
	-7.500000000000000e-07
	4.117680423568748e-222
	3.280853668015859e-07
	1.114388114646562e+00
	1.366668217612471e-01
 102	1.019999999999999e-10
	1.663947417146311e-05
	-7.500000000000000e-07
	1.495649435325329e-227
	3.693656281236273e-07
	1.114843878826592e+00
	1.368354632283188e-01
 103	1.029999999999999e-10
	1.523733478784738e-05
	-7.500000000000000e-07
	4.654263098476671e-233
	4.146130842455902e-07
	1.115384752084356e+00
	1.370250267585949e-01
 104	1.039999999999999e-10
	1.378591721923283e-05
	-7.500000000000000e-07
	1.240840594919091e-238
	4.633910261152034e-07
	1.116017593313013e+00
	1.372373252738430e-01
 105	1.049999999999999e-10
	1.231323898842516e-05
	-7.500000000000000e-07
	2.834164170210641e-244
	5.150335420473131e-07
	1.116735468815037e+00
	1.374739050945148e-01
 106	1.059999999999999e-10
	1.084147369862461e-05
	-7.500000000000000e-07
	5.545975688138775e-250
	5.686488751322873e-07
	1.117518720527870e+00
	1.377359359121909e-01
 107	1.069999999999999e-10
	9.390008900175569e-06
	-7.500000000000000e-07
	9.297685877511539e-256
	6.231426118479809e-07
	1.118337447385472e+00
	1.380241071799806e-01
 108	1.079999999999999e-10
	7.978404562371353e-06
	-7.500000000000000e-07
	1.335413399379479e-261
	6.772608214574335e-07
	1.119155079560932e+00
	1.383385405397249e-01
 109	1.089999999999999e-10
	6.628645479897847e-06
	-7.500000000000000e-07
	1.643238283007573e-267
	7.296504520962367e-07
	1.119932587690376e+00
	1.386787272824838e-01
 110	1.099999999999999e-10
	5.366302823103501e-06
	-7.500000000000000e-07
	1.732324773376632e-273
	7.789317111412399e-07
	1.120632807817832e+00
	1.390434979126990e-01
 111	1.109999999999999e-10
	4.220430889967443e-06
	-7.500000000000000e-07
	1.564595396131643e-279
	8.237752925031952e-07
	1.121224377668640e+00
	1.394310278859864e-01
 112	1.119999999999999e-10
	3.222233296581811e-06
	-7.500000000000000e-07
	1.210650380336759e-285
	8.629764937166227e-07
	1.121684858872773e+00
	1.398388799408803e-01
 113	1.129999999999999e-10
	2.402736320392634e-06
	-7.500000000000000e-07
	8.025634985037824e-292
	8.955186179769464e-07
	1.122002744032889e+00
	1.402640796821311e-01
 114	1.139999999999999e-10
	1.789880118370087e-06
	-7.500000000000000e-07
	4.558101939146968e-298
	9.206194929085552e-07
	1.122178196104365e+00
	1.407032177429055e-01
 115	1.149999999999999e-10
	1.405539413738076e-06
	-7.500000000000000e-07
	2.217852379963349e-304
	9.377571907231362e-07
	1.122222520603997e+00
	1.411525694150109e-01
 116	1.159999999999999e-10
	1.262980164077709e-06
	-7.500000000000000e-07
	9.245389545393517e-311
	9.466737190715639e-07
	1.122156511621822e+00
	1.416082213918533e-01
 117	1.169999999999999e-10
	1.365145241229358e-06
	-7.500000000000000e-07
	3.301883694868239e-317
	9.473581444003635e-07
	1.122007926735170e+00
	1.420661953245436e-01
 118	1.179999999999999e-10
	1.703975735777254e-06
	-7.500000000000000e-07
	9.881312916824931e-324
	9.400129204090019e-07
	1.121808423555104e+00
	1.425225591570435e-01
 119	1.189999999999999e-10
	2.260773416854420e-06
	-7.500000000000000e-07
	0.000000000000000e+00
	9.250088263245200e-07
	1.121590325605075e+00
	1.429735194251094e-01
 120	1.199999999999999e-10
	3.007449031487758e-06
	-7.500000000000000e-07
	0.000000000000000e+00
	9.028347045420271e-07
	1.121383575972212e+00
	1.434154905071031e-01
 121	1.209999999999999e-10
	3.908411262714426e-06
	-7.500000000000000e-07
	0.000000000000000e+00
	8.740480952498803e-07
	1.121213187192063e+00
	1.438451397856539e-01
 122	1.219999999999999e-10
	4.922833219533511e-06
	-7.500000000000000e-07
	0.000000000000000e+00
	8.392319947409581e-07
	1.121097413603019e+00
	1.442594104173132e-01
 123	1.229999999999999e-10
	6.007066407916321e-06
	-7.500000000000000e-07
	0.000000000000000e+00
	7.989615098651204e-07
	1.121046770379641e+00
	1.446555255833448e-01
 124	1.239999999999999e-10
	7.117027162720652e-06
	-7.500000000000000e-07
	0.000000000000000e+00
	7.537823973150603e-07
	1.121063916173394e+00
	1.450309794879076e-01
 125	1.249999999999999e-10
	8.210432266831646e-06
	-7.500000000000000e-07
	0.000000000000000e+00
	7.042016325598139e-07
	1.121144318051649e+00
	1.453835208858782e-01
 126	1.259999999999998e-10
	9.248794448601377e-06
	-7.500000000000000e-07
	0.000000000000000e+00
	6.506884955701902e-07
	1.121277539980842e+00
	1.457111345919062e-01
 127	1.269999999999998e-10
	1.019910251868013e-05
	-7.500000000000000e-07
	0.000000000000000e+00
	5.936833824973152e-07
	1.121448946962915e+00
	1.460120253817992e-01
 128	1.279999999999998e-10
	1.103511290927204e-05
	-7.500000000000000e-07
	0.000000000000000e+00
	5.336107767064407e-07
	1.121641598654410e+00
	1.462846071602358e-01
 129	1.289999999999998e-10
	1.173818202893087e-05
	-7.500000000000000e-07
	0.000000000000000e+00
	4.708925847223184e-07
	1.121838116736260e+00
	1.465274984889982e-01
 130	1.299999999999998e-10
	1.229758379167715e-05
	-7.500000000000000e-07
	0.000000000000000e+00
	4.059583364704254e-07
	1.122022343717752e+00
	1.467395238060305e-01
 131	1.309999999999998e-10
	1.271028956875103e-05
	-7.500000000000000e-07
	0.000000000000000e+00
	3.392494796539308e-07
	1.122180659428002e+00
	1.469197181493693e-01
 132	1.319999999999998e-10
	1.298023610191032e-05
	-7.500000000000000e-07
	0.000000000000000e+00
	2.712160394689776e-07
	1.122302876832473e+00
	1.470673321121210e-01
 133	1.329999999999998e-10
	1.311716111756933e-05
	-7.500000000000000e-07
	0.000000000000000e+00
	2.023051207231565e-07
	1.122382693444997e+00
	1.471818332101321e-01
 134	1.339999999999998e-10
	1.313513396095795e-05
	-7.500000000000000e-07
	0.000000000000000e+00
	1.329419518608414e-07
	1.122417722544462e+00
	1.472628998866085e-01
 135	1.349999999999998e-10
	1.305093866020533e-05
	-7.500000000000000e-07
	0.000000000000000e+00
	6.350527634629393e-08
	1.122409165711034e+00
	1.473104049835414e-01
 136	1.359999999999998e-10
	1.288247371601497e-05
	-7.500000000000000e-07
	0.000000000000000e+00
	-5.700219575669651e-09
	1.122361212927569e+00
	1.473243865964628e-01
 137	1.369999999999998e-10
	1.264731714551116e-05
	-7.500000000000000e-07
	0.000000000000000e+00
	-7.447116357346598e-08
	1.122280268440734e+00
	1.473050056720686e-01
 138	1.379999999999998e-10
	1.236157248751964e-05
	-7.500000000000000e-07
	0.000000000000000e+00
	-1.427288958201214e-07
	1.122174100881624e+00
	1.472524913576689e-01
 139	1.389999999999998e-10
	1.203906963790754e-05
	-7.500000000000000e-07
	0.000000000000000e+00
	-2.105355276925683e-07
	1.122051006874126e+00
	1.471670768098611e-01
 140	1.399999999999998e-10
	1.169095123568704e-05
	-7.500000000000000e-07
	0.000000000000000e+00
	-2.780995311396049e-07
	1.121919061115500e+00
	1.470489297683918e-01
 141	1.409999999999998e-10
	1.132563627067343e-05
	-7.500000000000000e-07
	0.000000000000000e+00
	-3.457683202334043e-07
	1.121785505499992e+00
	1.468980835716751e-01
 142	1.419999999999998e-10
	1.094911999674945e-05
	-7.500000000000000e-07
	0.000000000000000e+00
	-4.140060548364158e-07
	1.121656307986480e+00
	1.467143753322705e-01
 143	1.429999999999998e-10
	1.056554288612304e-05
	-7.500000000000000e-07
	0.000000000000000e+00
	-4.833557864702363e-07
	1.121535900978845e+00
	1.464973986314247e-01
 144	1.439999999999998e-10
	1.017793975282886e-05
	-7.500000000000000e-07
	0.000000000000000e+00
	-5.543860409466798e-07
	1.121427090891428e+00
	1.462464782817371e-01
 145	1.449999999999998e-10
	9.789062268065789e-06
	-7.500000000000000e-07
	0.000000000000000e+00
	-6.276229813204183e-07
	1.121331116605235e+00
	1.459606744076965e-01
 146	1.459999999999998e-10
	9.402154902211979e-06
	-7.500000000000000e-07
	0.000000000000000e+00
	-7.034704380695629e-07
	1.121247825331188e+00
	1.456388222644203e-01
 147	1.469999999999998e-10
	9.021559776445046e-06
	-7.500000000000000e-07
	0.000000000000000e+00
	-7.821213710537690e-07
	1.121175930017906e+00
	1.452796128001317e-01
 148	1.479999999999998e-10
	8.653036250089595e-06
	-7.500000000000000e-07
	0.000000000000000e+00
	-8.634657756326609e-07
	1.121113312384546e+00
	1.448817168941099e-01
 149	1.489999999999998e-10
	8.303712555887101e-06
	-7.499999999999999e-07
	0.000000000000000e+00
	-9.470016563439816e-07
	1.121057339053715e+00
	1.444439533884428e-01
 150	1.499999999999998e-10
	7.981641872215281e-06
	-7.500000000000000e-07
	0.000000000000000e+00
	-1.031757368425805e-06
	1.121005164016911e+00
	1.439654974235290e-01
 151	1.509999999999998e-10
	7.695008769578198e-06
	-7.500000000000000e-07
	0.000000000000000e+00
	-1.116235140723192e-06
	1.120953997643195e+00
	1.434461212075502e-01
 152	1.519999999999998e-10
	7.451109819183571e-06
	-7.500000000000000e-07
	0.000000000000000e+00
	-1.198386566147760e-06
	1.120901329590965e+00
	1.428864543693437e-01
 153	1.529999999999998e-10
	7.255293762929825e-06
	-7.500000000000000e-07
	0.000000000000000e+00
	-1.275630786705210e-06
	1.120845099455518e+00
	1.422882458424250e-01
 154	1.539999999999998e-10
	7.110071877827369e-06
	-7.500000000000000e-07
	0.000000000000000e+00
	-1.344924498856039e-06
	1.120783814207074e+00
	1.416546044276580e-01
 155	1.549999999999997e-10
	7.014586491100823e-06
	-7.500000000000000e-07
	0.000000000000000e+00
	-1.402889381676042e-06
	1.120716615168250e+00
	1.409901916207977e-01
 156	1.559999999999997e-10
	6.964557628773004e-06
	-7.500000000000000e-07
	0.000000000000000e+00
	-1.445997026445509e-06
	1.120643299452242e+00
	1.403013389172720e-01
 157	1.569999999999997e-10
	6.952731131868625e-06
	-7.499999999999999e-07
	0.000000000000000e+00
	-1.470804283684820e-06
	1.120564301671030e+00
	1.395960635000530e-01
 158	1.579999999999997e-10
	6.969751098040691e-06
	-7.500000000000000e-07
	0.000000000000000e+00
	-1.474223992399855e-06
	1.120480641720457e+00
	1.388839615642614e-01
 159	1.589999999999997e-10
	7.005299804577135e-06
	-7.500000000000000e-07
	0.000000000000000e+00
	-1.453808572137715e-06
	1.120393844014853e+00
	1.381759676120460e-01
 160	1.599999999999997e-10
	7.049306367859553e-06
	-7.500000000000000e-07
	0.000000000000000e+00
	-1.408018386433813e-06
	1.120305833109005e+00
	1.374839802881083e-01
 161	1.609999999999997e-10
	7.093027059846041e-06
	-7.500000000000000e-07
	0.000000000000000e+00
	-1.336444452653216e-06
	1.120218810532412e+00
	1.368203694747410e-01
 162	1.619999999999997e-10
	7.129840241497843e-06
	-7.500000000000000e-07
	0.000000000000000e+00
	-1.239956862333167e-06
	1.120135118028691e+00
	1.361973936456518e-01
 163	1.629999999999997e-10
	7.155664248298479e-06
	-7.500000000000000e-07
	0.000000000000000e+00
	-1.120756380026646e-06
	1.120057093214995e+00
	1.356265688501132e-01
 164	1.639999999999997e-10
	7.168980726190437e-06
	-7.500000000000000e-07
	0.000000000000000e+00
	-9.823165030638813e-07
	1.119986924756929e+00
	1.351180392226468e-01
 165	1.649999999999997e-10
	7.170513067664323e-06
	-7.499999999999999e-07
	0.000000000000000e+00
	-8.292154646438503e-07
	1.119926515180091e+00
	1.346800021144743e-01
 166	1.659999999999997e-10
	7.162657986156519e-06
	-7.500000000000000e-07
	0.000000000000000e+00
	-6.668704436678697e-07
	1.119877360052595e+00
	1.343182381039240e-01
 167	1.669999999999997e-10
	7.148792000627812e-06
	-7.500000000000000e-07
	0.000000000000000e+00
	-5.011976707305411e-07
	1.119840452155359e+00
	1.340357874508530e-01
 168	1.679999999999997e-10
	7.132573797269377e-06
	-7.500000000000000e-07
	0.000000000000000e+00
	-3.382304943958704e-07
	1.119816218202561e+00
	1.338328010801821e-01
 169	1.689999999999997e-10
	7.117342944658424e-06
	-7.500000000000000e-07
	0.000000000000000e+00
	-1.837316467023428e-07
	1.119804493640213e+00
	1.337065776649769e-01
 170	1.699999999999997e-10
	7.105682765825159e-06
	-7.500000000000000e-07
	0.000000000000000e+00
	-4.283550058690655e-08
	1.119804538172029e+00
	1.336517809629273e-01
 171	1.709999999999997e-10
	7.099178302929989e-06
	-7.500000000000000e-07
	0.000000000000000e+00
	8.024862660522849e-08
	1.119815091234959e+00
	1.336608153967177e-01
 172	1.719999999999997e-10
	7.098366054915990e-06
	-7.500000000000000e-07
	0.000000000000000e+00
	1.824491452018613e-07
	1.119834463079086e+00
	1.337243248035054e-01
 173	1.729999999999997e-10
	7.102845249305536e-06
	-7.499999999999999e-07
	0.000000000000000e+00
	2.619479216635550e-07
	1.119860653847539e+00
	1.338317705980911e-01
 174	1.739999999999997e-10
	7.111503264744636e-06
	-7.500000000000000e-07
	0.000000000000000e+00
	3.181967032997095e-07
	1.119891490519369e+00
	1.339720418989649e-01
 175	1.749999999999997e-10
	7.122800870700992e-06
	-7.500000000000000e-07
	0.000000000000000e+00
	3.518415780399455e-07
	1.119924770091359e+00
	1.341340513692682e-01
 176	1.759999999999997e-10
	7.135065079761282e-06
	-7.500000000000000e-07
	0.000000000000000e+00
	3.645705987333541e-07
	1.119958397108847e+00
	1.343072759565819e-01
 177	1.769999999999997e-10
	7.146746495188933e-06
	-7.500000000000000e-07
	0.000000000000000e+00
	3.589049497415867e-07
	1.119990504620460e+00
	1.344822103002693e-01
 178	1.779999999999997e-10
	7.156611448189814e-06
	-7.500000000000000e-07
	0.000000000000000e+00
	3.379565335488517e-07
	1.120019549677854e+00
	1.346507110336632e-01