Title: CKT1
Date: Sat Mar 30 12:38:21 2019
Plotname: Transient analysis
Flags: real
No. Variables: 8
No. Points: 5001    
Command: version 4.3.1
Variables:
 0 time S
 1 LC#branch A
 2 LJPM#branch A
 3 v(1) V
 4 v(3.X0) V
 5 v(3.X3) V
 6 v(7.X0)/2/pi V
 7 v(7.X3)/2/pi V
Values:
 0	0.000000000000000e+00
	0.000000000000000e+00
	0.000000000000000e+00
	1.277872395902753e-17
	1.277886796489413e-17
	7.162437115717102e-07
	0.000000000000000e+00
	0.000000000000000e+00
 1	5.000000000000000e-12
	6.259979820079509e-06
	-4.000000000000000e-07
	1.005130490455594e-10
	3.657239584599201e-05
	3.688572952314184e-05
	6.299848888905850e-02
	6.322206421448130e-02
 2	9.999999999999999e-12
	8.507483366564920e-06
	-4.000000000000000e-07
	4.396051009624482e-07
	1.557276836878461e-05
	1.795533874500652e-05
	1.285171043756532e-01
	1.317340112499896e-01
 3	1.500000000000000e-11
	6.863383838057953e-06
	-4.000000000000000e-07
	5.961076528795306e-05
	-3.061504492732329e-06
	1.122885142864616e-06
	1.409340303458730e-01
	1.526028245772206e-01
 4	2.000000000000000e-11
	6.967571773352887e-06
	-4.000000000000000e-07
	3.026154667705176e-04
	-2.774364722934200e-06
	-3.909680639009990e-06
	1.304706451910846e-01
	1.477999669046526e-01
 5	2.500000000000000e-11
	7.352013399907761e-06
	-4.000000000000000e-07
	4.930063384874472e-05
	1.785253539125548e-05
	-2.954854565861988e-06
	1.452058486601696e-01
	1.389825499983748e-01
 6	3.000000000000000e-11
	7.056816834378989e-06
	-4.000000000000000e-07
	1.836219167446288e-07
	4.596795859683954e-05
	-9.286399465136410e-07
	2.228000443830726e-01
	1.343925712354607e-01
 7	3.500000000000000e-11
	6.980895952879286e-06
	-4.000000000000000e-07
	2.797977112891878e-11
	7.041410462764382e-05
	1.396279757013449e-07
	3.644673941236871e-01
	1.336455913583625e-01
 8	4.000000000000000e-11
	7.103410925730652e-06
	-4.000000000000000e-07
	2.851276218733938e-17
	9.464986228415713e-05
	3.257726797674271e-07
	5.634400685406358e-01
	1.343036819968269e-01
 9	4.500000000000001e-11
	7.179833977525429e-06
	-4.000000000000000e-07
	4.661411705122663e-24
	1.021139873417223e-04
	1.802489713610267e-07
	8.114393488483732e-01
	1.349306880499484e-01
 10	5.000000000000001e-11
	7.266949036719883e-06
	-4.000000000000000e-07
	1.551293692097045e-31
	3.453409986243939e-05
	3.438466500442530e-08
	9.870705848114765e-01
	1.351796351939354e-01
 11	5.500000000000001e-11
	7.438651763370755e-06
	-4.000000000000000e-07
	6.331418046165471e-45
	-5.569025890111169e-06
	-2.295133429319641e-08
	1.009939715784925e+00
	1.351809804333318e-01
 12	6.000000000000001e-11
	7.738396569847500e-06
	-4.000000000000000e-07
	2.408825594737027e-56
	1.376229910332698e-05
	-1.930155559699576e-08
	1.016889916479820e+00
	1.351244002329633e-01
 13	6.500000000000001e-11
	8.232642686628315e-06
	-4.000000000000000e-07
	1.195131650165228e-67
	2.206602476592668e-05
	8.845516279874119e-10
	1.066266501087909e+00
	1.351019833350623e-01
 14	7.000000000000000e-11
	8.925285167433629e-06
	-4.000000000000000e-07
	3.460750615732998e-82
	4.168923926711535e-06
	1.815744480045536e-08
	1.100454349639312e+00
	1.351252392872887e-01
 15	7.500000000000000e-11
	9.815316304927061e-06
	-4.000000000000000e-07
	1.486046464258760e-104
	-6.459773606312701e-06
	3.291214690990902e-08
	1.094370927327875e+00
	1.351870623306443e-01
 16	8.000000000000000e-11
	1.120219238056149e-05
	-4.000000000000000e-07
	4.470601118736738e-122
	-3.971202222632188e-07
	5.113994832442687e-08
	1.084881261228802e+00
	1.352882822452316e-01
 17	8.499999999999999e-11
	1.365690726194953e-05
	-4.000000000000000e-07
	4.994513116989666e-141
	5.296531621264322e-06
	7.516824654939692e-08
	1.092013130861551e+00
	1.354401880063850e-01
 18	8.999999999999999e-11
	1.758709929807930e-05
	-4.000000000000000e-07
	1.895413335406545e-161
	4.349361669456348e-06
	1.077708461857782e-07
	1.104458214798305e+00
	1.356588829238195e-01
 19	9.499999999999998e-11
	2.132819030174376e-05
	-4.000000000000000e-07
	2.568479217114074e-192
	1.604575393881302e-06
	1.652233766772527e-07
	1.111679725999998e+00
	1.359799494851360e-01
 20	9.999999999999998e-11
	1.934532723398999e-05
	-4.000000000000000e-07
	2.618114284206667e-213
	6.628043540038942e-07
	2.887117156303662e-07
	1.113978268228287e+00
	1.365210293355606e-01
 21	1.050000000000000e-10
	1.272595616779422e-05
	-4.000000000000000e-07
	2.538968939349892e-238
	1.348395849692554e-06
	5.012693402737963e-07
	1.116290519711259e+00
	1.374606396873972e-01
 22	1.100000000000000e-10
	5.843550482231099e-06
	-4.000000000000000e-07
	6.772515016231816e-265
	1.453378366697554e-06
	7.586956689736025e-07
	1.119936994309369e+00
	1.389789029781466e-01
 23	1.150000000000000e-10
	1.879925107278989e-06
	-4.000000000000000e-07
	5.115623820996583e-306
	1.947336945536249e-07
	9.330559240196303e-07
	1.122053115412437e+00
	1.410440700625524e-01
 24	1.200000000000000e-10
	3.308828168145247e-06
	-4.000000000000000e-07
	0.000000000000000e+00
	-4.818015955562898e-07
	9.182859728202679e-07
	1.121446765091908e+00
	1.433131333756965e-01
 25	1.250000000000000e-10
	8.327120406474748e-06
	-4.000000000000000e-07
	0.000000000000000e+00
	4.914985397862872e-08
	7.325224456515422e-07
	1.120832586850181e+00
	1.453285664892527e-01
 26	1.300000000000000e-10
	1.247877797133514e-05
	-4.000000000000000e-07
	0.000000000000000e+00
	4.077666171300928e-07
	4.435512523568601e-07
	1.121514928582676e+00
	1.467626839793879e-01
 27	1.350000000000000e-10
	1.336679914194999e-05
	-4.000000000000000e-07
	0.000000000000000e+00
	5.057366258512470e-08
	1.121595660525832e-07
	1.122148614409719e+00
	1.474444676079284e-01
 28	1.400000000000000e-10
	1.204445026148018e-05
	-3.999999999999999e-07
	0.000000000000000e+00
	-2.914166651193849e-07
	-2.201451123235338e-07
	1.121808801295559e+00
	1.473239316909866e-01
 29	1.450000000000000e-10
	1.018770826873359e-05
	-4.000000000000000e-07
	0.000000000000000e+00
	-2.266467663486078e-07
	-5.566738546144609e-07
	1.121141985673198e+00
	1.463761757876507e-01
 30	1.500000000000000e-10
	8.357339667830200e-06
	-4.000000000000000e-07
	0.000000000000000e+00
	-9.754794103943233e-08
	-9.408220694426893e-07
	1.120771597281117e+00
	1.445677329042444e-01
 31	1.550000000000000e-10
	7.088136973852564e-06
	-4.000000000000000e-07
	0.000000000000000e+00
	-1.166772752123883e-07
	-1.325002565227542e-06
	1.120534483113811e+00
	1.418132365866525e-01
 32	1.600000000000000e-10
	6.873051553433565e-06
	-4.000000000000000e-07
	0.000000000000000e+00
	-1.806357549630389e-07
	-1.448822929846108e-06
	1.120169072714612e+00
	1.383907728372873e-01
 33	1.650000000000001e-10
	7.079549354398122e-06
	-4.000000000000000e-07
	0.000000000000000e+00
	-1.493052462681720e-07
	-1.036491264555054e-06
	1.119749292552527e+00
	1.352803442097065e-01
 34	1.700000000000001e-10
	7.048204569773043e-06
	-4.000000000000000e-07
	0.000000000000000e+00
	-2.663842855369719e-08
	-2.556468004296354e-07
	1.119535053556474e+00
	1.337311989328776e-01
 35	1.750000000000001e-10
	7.004697817856293e-06
	-4.000000000000000e-07
	6.330572024849087e-298
	6.482627678915465e-08
	2.961138231634687e-07
	1.119597734445705e+00
	1.338706731750530e-01
 36	1.800000000000001e-10
	7.061982510612277e-06
	-4.000000000000000e-07
	7.521687297909473e-270
	5.703996510621380e-08
	3.396181368632761e-07
	1.119760044730401e+00
	1.347149787373743e-01
 37	1.850000000000001e-10
	7.079345209125440e-06
	-4.000000000000000e-07
	3.179044725870641e-243
	2.556333124407387e-09
	1.108720321747398e-07
	1.119832840298753e+00
	1.352756618530181e-01
 38	1.900000000000001e-10
	7.051404034859306e-06
	-4.000000000000000e-07
	5.072766319221902e-218
	-2.140010948192493e-08
	-5.658079942249953e-08
	1.119803164598610e+00
	1.353216646533944e-01
 39	1.950000000000001e-10
	7.046406951778236e-06
	-4.000000000000000e-07
	8.132157126500836e-184
	-9.349726104880888e-09
	-6.959539821088333e-08
	1.119763699503738e+00
	1.351510107934367e-01
 40	2.000000000000001e-10
	7.055779206841501e-06
	-4.000000000000000e-07
	8.175856206565203e-162
	2.467024692651669e-09
	-2.352860557367235e-08
	1.119757624722250e+00
	1.350386080551889e-01
 41	2.050000000000001e-10
	7.055001246863994e-06
	-4.000000000000000e-07
	2.186156616400862e-141
	3.161292773428807e-09
	6.172779872906411e-09
	1.119765721031030e+00
	1.350227939454998e-01
 42	2.100000000000001e-10
	7.053281291423277e-06
	-4.000000000000000e-07
	2.041692505269014e-122
	6.494167351557485e-10
	1.020544966186247e-08
	1.119770267058826e+00
	1.350455774012120e-01
 43	2.150000000000001e-10
	7.054965659482269e-06
	-4.000000000000000e-07
	7.149787651481557e-105
	-4.178893022067453e-10
	4.371765710844209e-09
	1.119770314968224e+00
	1.350637774097613e-01
 44	2.200000000000001e-10
	7.054145120409295e-06
	-4.000000000000000e-07
	2.874238731892350e-82
	-4.051091975411694e-10
	-2.035658634727065e-10
	1.119769238286306e+00
	1.350682526504920e-01
 45	2.250000000000002e-10
	7.054565200460050e-06
	-4.000000000000000e-07
	7.476523301150308e-68
	-1.210379493870026e-10
	-1.338478056377162e-09
	1.119768600067766e+00
	1.350659129887534e-01
 46	2.300000000000002e-10
	7.054911668837797e-06
	-4.000000000000000e-07
	4.527464278947256e-55
	9.411512636080217e-11
	-7.487522997475202e-10
	1.119768602232879e+00
	1.350632782728422e-01
 47	2.350000000000002e-10
	7.055458523310491e-06
	-4.000000000000000e-07
	9.361195788135301e-44
	7.011008798816291e-11
	-7.421887615267620e-11
	1.119768839457803e+00
	1.350623412793382e-01
 48	2.400000000000002e-10
	7.054716879453242e-06
	-4.000000000000000e-07
	7.200338104171598e-34
	-7.556492243696339e-11
	1.543539273845320e-10
	1.119768836686596e+00
	1.350624980721638e-01
 49	2.450000000000001e-10
	7.054592636326814e-06
	-4.000000000000000e-07
	6.518105607100038e-23
	-1.193140442462593e-10
	1.302494469688151e-10
	1.119768574518942e+00
	1.350628581572368e-01
 50	2.500000000000001e-10
	7.054975330709843e-06
	-4.000000000000000e-07
	4.843303008980129e-16
	1.359000892976841e-12
	6.982810594594384e-11
	1.119768418666747e+00
	1.350630983995913e-01
 51	2.550000000000001e-10
	7.054537745285636e-06
	-4.000000000000000e-07
	6.719047719405163e-11
	1.096220038232281e-10
	1.620187164280958e-12
	1.119768576103588e+00
	1.350631854307562e-01
 52	2.600000000000001e-10
	7.054416344864025e-06
	-4.000000000000000e-07
	3.106982630832116e-07
	4.113550471223500e-10
	-5.272263972241653e-11
	1.119769006615325e+00
	1.350631168505759e-01
 53	2.650000000000001e-10
	7.053975525885455e-06
	-4.000000000000000e-07
	5.306845092537597e-05
	1.001775301805987e-07
	-4.751659029364685e-11
	1.119834769047556e+00
	1.350629852560575e-01
 54	2.700000000000000e-10
	7.055067720691305e-06
	-4.000000000000000e-07
	3.202617661333880e-04
	3.123513192091160e-06
	-9.652327786219130e-12
	1.122555883770929e+00
	1.350629157087107e-01
 55	2.750000000000000e-10
	7.054964337132605e-06
	-4.000000000000000e-07
	5.457292860720524e-05
	1.949062852011645e-05
	4.888462768344146e-13
	1.147848693098313e+00
	1.350629108821713e-01
 56	2.800000000000000e-10
	7.057398283168883e-06
	-4.000000000000000e-07
	2.088973736774719e-07
	4.526936999452859e-05
	-5.532000626444858e-12
	1.225136412413909e+00
	1.350629028926211e-01
 57	2.850000000000000e-10
	7.069442150919207e-06
	-4.000000000000000e-07
	1.587981776530208e-11
	7.007119134058983e-05
	1.952693342187760e-11
	1.365636572076749e+00
	1.350629125781500e-01
 58	2.900000000000000e-10
	7.103198784369997e-06
	-4.000000000000000e-07
	7.952238906087846e-17
	9.465856784243385e-05
	9.682537237699375e-11
	1.564535887756372e+00
	1.350630426064661e-01
 59	2.950000000000000e-10
	7.167670212325216e-06
	-4.000000000000000e-07
	1.266977441162194e-23
	1.018935172084996e-04
	3.597441525624473e-10
	1.811863708392724e+00
	1.350635366795252e-01
 60	2.999999999999999e-10
	7.269256020437037e-06
	-4.000000000000000e-07
	3.886677227699509e-34
	3.438936105018987e-05
	1.199393691870972e-09
	1.987949934374487e+00
	1.350652534453211e-01
 61	3.049999999999999e-10
	7.439696634311856e-06
	-4.000000000000000e-07
	4.637232343017650e-44
	-4.703425571766350e-06
	3.166200327919358e-09
	2.009601243249393e+00
	1.350703928438529e-01
 62	3.099999999999999e-10
	7.735646378608886e-06
	-4.000000000000000e-07
	1.855066458364366e-55
	1.380255882845236e-05
	6.436076352428185e-09
	2.016849304234652e+00
	1.350817880736027e-01
 63	3.149999999999999e-10
	8.227852171183568e-06
	-4.000000000000000e-07
	4.948040201385546e-67
	2.246198894396459e-05
	1.108218373969932e-08
	2.066237462579728e+00
	1.351025660316554e-01
 64	3.199999999999999e-10
	8.926842120493717e-06
	-4.000000000000000e-07
	3.328355971723369e-87
	4.298046253777669e-06
	1.814407460160377e-08
	2.100087282724316e+00
	1.351374108626681e-01
 65	3.249999999999999e-10
	9.819932919514915e-06
	-4.000000000000000e-07
	3.289918178850653e-103
	-6.258326938222948e-06
	3.016814841152879e-08
	2.094152383162691e+00
	1.351951379425117e-01
 66	3.299999999999998e-10
	1.119970254821917e-05
	-4.000000000000000e-07
	1.213754597379028e-120
	-3.963178510855928e-07
	4.920005394631116e-08
	2.084722717334768e+00
	1.352900957739297e-01
 67	3.349999999999998e-10
	1.364421610224742e-05
	-4.000000000000000e-07
	1.543849335243125e-139
	5.319931539893093e-06
	7.465051764839834e-08
	2.091766814390018e+00
	1.354386709290289e-01
 68	3.399999999999998e-10
	1.757400621238237e-05
	-4.000000000000000e-07
	4.857954405333834e-160
	4.367485630038166e-06
	1.077730368051149e-07
	2.104283213431215e+00
	1.356564393961107e-01
 69	3.449999999999998e-10
	2.125883464737776e-05
	-4.000000000000000e-07
	1.190840709993852e-190
	1.624151720036695e-06
	1.659381022270260e-07
	2.111389390844945e+00
	1.359810310082481e-01
 70	3.499999999999998e-10
	1.935452991478778e-05
	-4.000000000000000e-07
	3.116186958313339e-211
	6.578823494354189e-07
	2.881094538334074e-07
	2.113722291431821e+00
	1.365184862453515e-01
 71	3.549999999999998e-10
	1.273139202429382e-05
	-4.000000000000000e-07
	2.832873757237563e-236
	1.356263657656153e-06
	5.001979159796518e-07
	2.116018220651572e+00
	1.374521451058505e-01
 72	3.599999999999997e-10
	5.831253160348347e-06
	-4.000000000000000e-07
	4.023990393381747e-275
	1.472007349706523e-06
	7.587119728944032e-07
	2.119691994920953e+00
	1.389694849612677e-01
 73	3.649999999999997e-10
	1.976617602848952e-06
	-4.000000000000000e-07
	2.169704937192675e-303
	2.076182785208781e-07
	9.297129857356401e-07
	2.121757298484269e+00
	1.410417463015601e-01
 74	3.699999999999997e-10
	3.361981769184130e-06
	-4.000000000000000e-07
	0.000000000000000e+00
	-4.717164141130116e-07
	9.159494621449935e-07
	2.121190790206864e+00
	1.433050924331666e-01
 75	3.749999999999997e-10
	8.362706810001124e-06
	-4.000000000000000e-07
	0.000000000000000e+00
	5.075836418625957e-08
	7.298056511645646e-07
	2.120575375061907e+00
	1.453184031074139e-01
 76	3.799999999999997e-10
	1.251933275474750e-05
	-4.000000000000000e-07
	0.000000000000000e+00
	4.140457713494940e-07
	4.380033185639054e-07
	2.121258460871437e+00
	1.467482290081802e-01
 77	3.849999999999997e-10
	1.334933389046287e-05
	-4.000000000000000e-07
	0.000000000000000e+00
	4.895877354586724e-08
	1.008435076460820e-07
	2.121903820045285e+00
	1.474152971687330e-01
 78	3.899999999999996e-10
	1.190862749160848e-05
	-4.000000000000000e-07
	0.000000000000000e+00
	-2.872088097857516e-07
	-2.401397450900207e-07
	2.121537836521496e+00
	1.472327615910328e-01
 79	3.949999999999996e-10
	1.000423749436149e-05
	-4.000000000000000e-07
	0.000000000000000e+00
	-2.297459019676620e-07
	-5.880871924987661e-07
	2.120868969841035e+00
	1.462289158697954e-01
 80	3.999999999999996e-10
	8.193040032024922e-06
	-4.000000000000000e-07
	0.000000000000000e+00
	-1.019549524627258e-07
	-9.793107003694643e-07
	2.120486288434424e+00
	1.443415082842796e-01
 81	4.049999999999996e-10
	7.019140869240038e-06
	-4.000000000000000e-07
	0.000000000000000e+00
	-1.196232874721776e-07
	-1.353595424367968e-06
	2.120240366740220e+00
	1.415092025716887e-01
 82	4.099999999999996e-10
	6.886184198916597e-06
	-4.000000000000000e-07
	0.000000000000000e+00
	-1.798489247292875e-07
	-1.440791091826030e-06
	2.119873064486129e+00
	1.380607209666339e-01
 83	4.149999999999995e-10
	7.082172332304644e-06
	-4.000000000000000e-07
	0.000000000000000e+00
	-1.383010766901708e-07
	-9.669779671249198e-07
	2.119470520046066e+00
	1.350789960665125e-01
 84	4.199999999999995e-10
	7.040427043788817e-06
	-4.000000000000000e-07
	0.000000000000000e+00
	-1.600223735047147e-08
	-1.888382010934565e-07
	2.119283023850061e+00
	1.336981846599050e-01
 85	4.249999999999995e-10
	7.009557069342849e-06
	-4.000000000000000e-07
	1.932246840695405e-300
	6.743369261997490e-08
	3.200220785228065e-07
	2.119360825266866e+00
	1.339410037218604e-01
 86	4.299999999999995e-10
	7.067831890263113e-06
	-3.999999999999999e-07
	2.737897216202893e-272
	5.244268539949464e-08
	3.248149593086165e-07
	2.119520069311701e+00
	1.347919773577812e-01
 87	4.349999999999995e-10
	7.077226505588948e-06
	-4.000000000000000e-07
	1.463250250797998e-245
	-2.195666937534239e-09
	8.787389977071284e-08
	2.119581467326183e+00
	1.353063693060691e-01
 88	4.399999999999995e-10
	7.051682836015336e-06
	-4.000000000000000e-07
	4.393597743909862e-209
	-2.107248143385311e-08
	-6.258952634247079e-08
	2.119545628870715e+00
	1.353086934122466e-01
 89	4.449999999999994e-10
	7.049396462641715e-06
	-4.000000000000000e-07
	1.510493415461683e-185
	-7.729079123590610e-09
	-6.563590184234509e-08
	2.119509275852457e+00
	1.351370211797842e-01
 90	4.499999999999994e-10
	7.055158207154233e-06
	-4.000000000000000e-07
	1.358630538119358e-163
	2.901483654675789e-09
	-1.957094909219837e-08
	2.119505608732041e+00
	1.350341869021894e-01
 91	4.549999999999994e-10
	7.054760969664840e-06
	-4.000000000000000e-07
	4.255013096300629e-143
	2.740772093550207e-09
	7.541936770311583e-09
	2.119513540446195e+00
	1.350242924124276e-01
 92	4.599999999999994e-10
	7.055268628285000e-06
	-4.000000000000000e-07
	4.991243228656304e-124
	4.825592571489372e-10
	9.970081318236537e-09
	2.119517288834091e+00
	1.350481280310802e-01
 93	4.649999999999994e-10
	7.054877529633917e-06
	-4.000000000000000e-07
	3.712131996109413e-99
	-1.959538650344107e-10
	3.809870054491011e-09
	2.119517467821009e+00
	1.350649791367076e-01
 94	4.699999999999994e-10
	7.054814343278300e-06
	-4.000000000000000e-07
	3.337701461923784e-83
	-3.945001432400495e-10
	-4.801630391424517e-10
	2.119516723491568e+00
	1.350682727340723e-01
 95	4.749999999999994e-10
	7.054973912785796e-06
	-4.000000000000000e-07
	6.806319565076451e-69
	-2.811099964091490e-10
	-1.339734445159457e-09
	2.119515834971166e+00
	1.350656189013224e-01
 96	4.799999999999994e-10
	7.053881915333369e-06
	-4.000000000000000e-07
	4.720822287687587e-56
	9.215327512501979e-11
	-6.129997188514250e-10
	2.119515606050209e+00
	1.350631678325626e-01
 97	4.849999999999994e-10
	7.054534988484464e-06
	-4.000000000000000e-07
	1.216473626161612e-44
	2.134009186605465e-10
	1.100018750078489e-12
	2.119516034324000e+00
	1.350624981952110e-01
 98	4.899999999999993e-10
	7.055848145567444e-06
	-4.000000000000000e-07
	1.982690222628765e-31
	8.432101718672400e-11
	1.068314508949024e-10
	2.119516408681740e+00
	1.350626855910506e-01
 99	4.949999999999993e-10
	7.054371785933151e-06
	-4.000000000000000e-07
	5.209447564301552e-23
	-5.028507153128905e-11
	3.386507341746469e-11
	2.119516441905189e+00
	1.350628533483849e-01
 100	4.999999999999993e-10
	7.054495727158362e-06
	-4.000000000000000e-07
	2.430604615261917e-16
	-1.407282679776551e-10
	1.826817414547778e-11
	2.119516193725121e+00
	1.350629023384401e-01
 101	5.049999999999993e-10
	7.054092673878293e-06
	-4.000000000000000e-07
	3.747623837579694e-11
	-6.381379864070251e-11
	4.816896056686176e-11
	2.119515912350393e+00
	1.350629832284466e-01
 102	5.099999999999993e-10
	7.053637213270382e-06
	-4.000000000000000e-07
	2.127402950689806e-07
	3.551599760128760e-10
	3.040217745865109e-11
	2.119516114168397e+00
	1.350630910467437e-01
 103	5.149999999999993e-10
	7.054495045359951e-06
	-4.000000000000000e-07
	4.869975421132611e-05
	9.253244010526571e-08
	-4.137617180497416e-11
	2.119577409888116e+00
	1.350630823429576e-01
 104	5.199999999999992e-10
	7.054056146131561e-06
	-4.000000000000000e-07
	3.034602725542869e-04
	3.352442322026797e-06
	-8.051518366547067e-11
	2.122626289334943e+00
	1.350629223262584e-01
 105	5.249999999999992e-10
	7.054184101202396e-06
	-4.000000000000000e-07
	5.931928240844593e-05
	1.954728506893529e-05
	-4.732522649830862e-11
	2.148044944490516e+00
	1.350627579894946e-01
 106	5.299999999999992e-10
	7.056808243872653e-06
	-4.000000000000000e-07
	2.150418682161939e-07
	4.512384376717170e-05
	1.919621765360635e-11
	2.224627643123250e+00
	1.350627213949381e-01
 107	5.349999999999992e-10
	7.068895094191784e-06
	-4.000000000000000e-07
	2.210337965511785e-11
	6.983256446810101e-05
	5.131597822973137e-11
	2.364933347189561e+00
	1.350628168375073e-01
 108	5.399999999999992e-10
	7.104387388582410e-06
	-4.000000000000000e-07
	1.671661525243020e-16
	9.440286211917273e-05
	8.027210189960140e-11
	2.563111573550552e+00
	1.350629646169035e-01
 109	5.449999999999992e-10
	7.167969812710435e-06
	-4.000000000000000e-07
	2.724708560653501e-23
	1.024768694116498e-04
	3.275347093216753e-10
	2.810265661564510e+00
	1.350633860381223e-01
 110	5.499999999999991e-10
	7.268288079474803e-06
	-4.000000000000000e-07
	1.687541322379148e-33
	3.566951944969119e-05
	1.234512865501893e-09
	2.985053665997712e+00
	1.350651296799106e-01
 111	5.549999999999991e-10
	7.439122343842501e-06
	-4.000000000000000e-07
	2.459826975670453e-43
	-4.251507987201732e-06
	3.251468817100898e-09
	3.009414207248346e+00
	1.350703892471560e-01
 112	5.599999999999991e-10
	7.733534919460957e-06
	-4.000000000000000e-07
	1.068286913299399e-54
	1.370229613792408e-05
	6.477311192560739e-09
	3.016385804305424e+00
	1.350819018759575e-01
 113	5.649999999999991e-10
	8.223254495394484e-06
	-4.000000000000000e-07
	2.140300465343619e-71
	2.253422251669798e-05
	1.100371129660044e-08
	3.065504289882888e+00
	1.351026909731931e-01
 114	5.699999999999991e-10
	8.921485980225204e-06
	-4.000000000000000e-07
	7.097021766786510e-86
	4.572422486286250e-06
	1.804199423536431e-08
	3.099315498912944e+00
	1.351374320608480e-01
 115	5.749999999999990e-10
	9.811719404083569e-06
	-4.000000000000000e-07
	8.791763682159552e-102
	-6.155281174063004e-06
	3.006684260519825e-08
	3.094043136029808e+00
	1.351946743661868e-01
 116	5.799999999999990e-10
	1.118027215159792e-05
	-4.000000000000000e-07
	3.765043191343997e-119
	-4.260646784590830e-07
	4.903357676035610e-08
	3.084507683714205e+00
	1.352889752414375e-01
 117	5.849999999999990e-10
	1.359707881783587e-05
	-4.000000000000000e-07
	4.052192253393968e-138
	5.395358572999668e-06
	7.431113804019040e-08
	3.091469919345692e+00
	1.354365094716022e-01
 118	5.899999999999990e-10
	1.752376801603667e-05
	-4.000000000000000e-07
	1.122999942853281e-167
	4.404478145462041e-06
	1.073212940284432e-07
	3.104069081435769e+00
	1.356539515671819e-01
 119	5.949999999999990e-10
	2.121806529001700e-05
	-4.000000000000000e-07
	6.270570311649897e-189
	1.648349600961914e-06
	1.654739398985047e-07
	3.111175276839258e+00
	1.359782916666151e-01
 120	5.999999999999990e-10
	1.944831093793415e-05
	-4.000000000000000e-07
	2.560852898341741e-209
	6.370248715142679e-07
	2.857063579077490e-07
	3.113547818598978e+00
	1.365083394574647e-01
 121	6.049999999999989e-10
	1.280299217769781e-05
	-3.999999999999999e-07
	6.864784321633446e-246
	1.351476840496112e-06
	4.972803479435806e-07
	3.115811350621831e+00
	1.374357548604921e-01
 122	6.099999999999989e-10
	5.925844291197344e-06
	-4.000000000000000e-07
	1.240171378600391e-272
	1.454664638165002e-06
	7.553687755272840e-07
	3.119475214082491e+00
	1.389617949637099e-01
 123	6.149999999999989e-10
	2.018013576040769e-06
	-4.000000000000000e-07
	8.491261408282774e-301
	2.207161551383329e-07
	9.280752469018242e-07
	3.121569610935486e+00
	1.410249878974694e-01
 124	6.199999999999989e-10
	3.312654803277886e-06
	-4.000000000000000e-07
	0.000000000000000e+00
	-4.721861262676491e-07
	9.179028437881997e-07
	3.121033353049651e+00
	1.432891776097362e-01
 125	6.249999999999989e-10
	8.305874528049206e-06
	-4.000000000000000e-07
	0.000000000000000e+00
	4.939622100633029e-08
	7.348129433181119e-07
	3.120399722525361e+00
	1.453142113675190e-01
 126	6.299999999999989e-10
	1.254877519726639e-05
	-4.000000000000000e-07
	0.000000000000000e+00
	4.304332487885342e-07
	4.455716847182659e-07
	3.121090894561468e+00
	1.467639567639613e-01
 127	6.349999999999988e-10
	1.335843286816103e-05
	-4.000000000000000e-07
	0.000000000000000e+00
	5.702197876121176e-08
	1.114110463932110e-07
	3.121728970900899e+00
	1.474268098899701e-01
 128	6.399999999999988e-10
	1.200607196371174e-05
	-4.000000000000000e-07
	0.000000000000000e+00
	-2.805010171986446e-07
	-2.241085291539985e-07
	3.121387827226993e+00
	1.472824914781081e-01
 129	6.449999999999988e-10
	1.014045607173268e-05
	-4.000000000000000e-07
	0.000000000000000e+00
	-2.277578099874420e-07
	-5.647285046011024e-07
	3.120726247742582e+00
	1.463323878844254e-01
 130	6.499999999999988e-10
	8.306822210257811e-06
	-4.000000000000000e-07
	0.000000000000000e+00
	-9.781025834987044e-08
	-9.509060930555819e-07
	3.120347691453187e+00
	1.445158730645479e-01
 131	6.549999999999988e-10
	7.045267921813662e-06
	-4.000000000000000e-07
	0.000000000000000e+00
	-1.158983743383657e-07
	-1.337597516252702e-06
	3.120112188975165e+00
	1.417494014596684e-01
 132	6.599999999999988e-10
	6.873694457893287e-06
	-4.000000000000000e-07
	0.000000000000000e+00
	-1.796654167141637e-07
	-1.446435148760769e-06
	3.119745027282609e+00
	1.383088186400954e-01
 133	6.649999999999987e-10
	7.071073508495373e-06
	-4.000000000000000e-07
	0.000000000000000e+00
	-1.444292687603386e-07
	-1.011820540163808e-06
	3.119334211568682e+00
	1.352579304327685e-01
 134	6.699999999999987e-10
	7.044923505899175e-06
	-4.000000000000000e-07
	0.000000000000000e+00
	-2.375781384224045e-08
	-2.393217404759547e-07
	3.119125950052546e+00
	1.337382710252956e-01
 135	6.749999999999987e-10
	7.005453097189242e-06
	-3.999999999999999e-07
	5.014920123723449e-303
	6.629288588866013e-08
	3.052968101035097e-07
	3.119190404248664e+00
	1.338881934331606e-01
 136	6.799999999999987e-10
	7.064270976064756e-06
	-4.000000000000000e-07
	8.980718703694401e-275
	5.677427681908758e-08
	3.406867968041163e-07
	3.119354375318172e+00
	1.347424105495923e-01
 137	6.849999999999987e-10
	7.078458138456384e-06
	-4.000000000000000e-07
	5.058408721402831e-236
	9.957326029032166e-10
	1.049277455586837e-07
	3.119422683359156e+00
	1.352869801834286e-01
 138	6.899999999999987e-10
	7.050385029379437e-06
	-4.000000000000000e-07
	5.948085366415578e-211
	-2.106664633959773e-08
	-5.575572162628496e-08
	3.119390017197618e+00
	1.353156711506571e-01
 139	6.949999999999986e-10
	7.048047058476478e-06
	-4.000000000000000e-07
	1.800188053011112e-187
	-8.864976599164827e-09
	-6.774668961874242e-08
	3.119351384961850e+00
	1.351478086914401e-01
 140	6.999999999999986e-10
	7.056157958348485e-06
	-4.000000000000000e-07
	1.891371858061453e-165
	2.824084084260945e-09
	-2.231261942369081e-08
	3.119345956572467e+00
	1.350372069569288e-01
 141	7.049999999999986e-10
	7.054020892631398e-06
	-4.000000000000000e-07
	7.434978744759431e-145
	3.030811428662442e-09
	6.917510119515402e-09
	3.119354343785972e+00
	1.350225849009709e-01
 142	7.099999999999986e-10
	7.052927444392187e-06
	-4.000000000000000e-07
	1.024282045646401e-117
	3.292718327449789e-10
	1.026702335305452e-08
	3.119358206519952e+00
	1.350461050495839e-01
 143	7.149999999999986e-10
	7.055574447007697e-06
	-4.000000000000000e-07
	3.185119518230873e-100
	-3.693581518799516e-10
	4.339505536070714e-09
	3.119357853579972e+00
	1.350638535866812e-01
 144	7.199999999999985e-10
	7.055474486113101e-06
	-4.000000000000000e-07
	2.187819279788935e-84
	-1.996776247744030e-10
	-1.975252535610950e-10
	3.119357154474541e+00
	1.350682455093055e-01
 145	7.249999999999985e-10
	7.053699383896205e-06
	-4.000000000000000e-07
	5.092249086085792e-70
	-1.629932270547283e-10
	-1.390497826495365e-09
	3.119356745982555e+00
	1.350658643005380e-01
 146	7.299999999999985e-10
	7.055837786514107e-06
	-4.000000000000000e-07
	4.397903496063820e-57
	-1.217154432528537e-10
	-7.305784880201039e-10
	3.119356371499778e+00
	1.350631444333856e-01
 147	7.349999999999985e-10
	7.055043176227592e-06
	-4.000000000000000e-07
	1.292597946330531e-41
	7.061404777962357e-11
	1.996961669621610e-11
	3.119356303123670e+00
	1.350623504086238e-01
 148	7.399999999999985e-10
	7.053731235444086e-06
	-4.000000000000000e-07
	1.203666075707853e-31
	9.291217775349064e-11
	1.834938139772614e-10
	3.119356545871802e+00
	1.350626820813931e-01
 149	7.449999999999985e-10
	7.053984911643602e-06
	-4.000000000000000e-07
	1.893463438244135e-23
	-1.300220717749195e-11
	7.453632598530591e-11
	3.119356629582205e+00
	1.350630008575710e-01
 150	7.499999999999984e-10
	7.055032218778732e-06
	-4.000000000000000e-07
	9.789338203062286e-17
	5.013051934751800e-11
	-1.622876273112476e-12
	3.119356643815884e+00
	1.350630780281601e-01
 151	7.549999999999984e-10
	7.053849401872978e-06
	-4.000000000000000e-07
	1.859948285452578e-11
	1.190610558681898e-10
	-4.284126596791152e-11
	3.119356876090728e+00
	1.350630241288635e-01
 152	7.599999999999984e-10
	7.053670354285793e-06
	-4.000000000000000e-07
	2.081214884917376e-07
	2.171382331874740e-10
	-5.968802969670125e-11
	3.119357158719954e+00
	1.350628923440008e-01
 153	7.649999999999984e-10
	7.054928917667710e-06
	-4.000000000000000e-07
	5.645500941723557e-05
	1.250234180358497e-07
	-1.259966878537535e-11
	3.119442514730588e+00
	1.350627994159941e-01
 154	7.699999999999984e-10
	7.054813705013829e-06
	-4.000000000000000e-07
	2.942227459864122e-04
	3.448238327924360e-06
	2.767243378618943e-11
	3.122574974481506e+00
	1.350628275708987e-01
 155	7.749999999999984e-10
	7.054002072795280e-06
	-4.000000000000000e-07
	5.989574978481561e-05
	1.955175068525043e-05
	1.303971636794716e-11
	3.147824090811785e+00
	1.350628822885363e-01
 156	7.799999999999983e-10
	7.056891101425611e-06
	-4.000000000000000e-07
	1.980740139868212e-07
	4.501762998145210e-05
	6.694499811406350e-12
	3.224121506084543e+00