Title: CKT7
Date: Wed Oct 11 15:54:55 2017
Plotname: Transient analysis
Flags: real
No. Variables: 6
No. Points: 1001    
Command: version 4.3.1
Variables:
 0 time S
 1 v(DCIN) V
 2 v(DCOUT) V
 3 v(JTL1) V
 4 v(JTL2) V
 5 v(SFQIN) V
Values:
 0	0.000000000000000e+00
	0.000000000000000e+00
	0.000000000000000e+00
	0.000000000000000e+00
	0.000000000000000e+00
	0.000000000000000e+00
 1	1.000000000000000e-12
	1.994125471803485e-05
	7.326942859317289e-06
	1.462577491242666e-05
	1.637425724686121e-05
	1.486301364225366e-05
 2	2.000000000000000e-12
	2.763978806008925e-05
	1.558163553148479e-05
	2.668477718915816e-05
	2.922318564569026e-05
	2.723023355568294e-05
 3	3.000000000000000e-12
	2.455690893119528e-05
	2.077183494595724e-05
	2.740903488928650e-05
	2.965932146537203e-05
	2.772002822016279e-05
 4	4.000000000000000e-12
	2.410771316835920e-05
	2.458789685273547e-05
	2.513714261347301e-05
	2.726365746065048e-05
	2.512178386823420e-05
 5	5.000000000000000e-12
	2.477768396255230e-05
	2.855760720965651e-05
	2.469861572697882e-05
	2.709156991707971e-05
	2.489664024281789e-05
 6	5.999999999999999e-12
	2.526807932839203e-05
	3.243630304711390e-05
	2.550755423329119e-05
	2.806989455711213e-05
	2.585147997714112e-05
 7	6.999999999999999e-12
	2.587236332708709e-05
	3.619817991457116e-05
	2.643688146452538e-05
	2.911261584925692e-05
	2.669627777266127e-05
 8	8.000000000000000e-12
	2.657035954609273e-05
	3.985435986788698e-05
	2.728165537132305e-05
	3.015955706078459e-05
	2.750596652586586e-05
 9	9.000000000000000e-12
	2.751081319991504e-05
	4.348659358078551e-05
	2.828613543047766e-05
	3.145035651460139e-05
	2.854195833272365e-05
 10	9.999999999999999e-12
	2.871670886939564e-05
	4.723326755321085e-05
	2.962330919700877e-05
	3.314587375011397e-05
	2.989989565824875e-05
 11	1.100000000000000e-11
	9.451567453472576e-06
	4.377724596568068e-05
	1.612730550350490e-05
	1.818012455291815e-05
	1.614937567874547e-05
 12	1.200000000000000e-11
	-1.442825432972696e-06
	3.849390588980606e-05
	2.119933850172303e-06
	2.872888669135427e-06
	1.666393862650666e-06
 13	1.300000000000000e-11
	-1.107599824005079e-06
	3.515169955453354e-05
	-2.367486659039798e-06
	-2.027932707635734e-06
	-2.842601553126646e-06
 14	1.400000000000000e-11
	-3.185489953244154e-07
	3.341132906960855e-05
	-1.604452031498163e-06
	-1.092296865432388e-06
	-1.562761162425902e-06
 15	1.500000000000000e-11
	-1.307378423435534e-07
	3.210135908984600e-05
	-2.645160497307025e-07
	3.230439426152249e-07
	-8.990934259353797e-08
 16	1.600000000000000e-11
	7.421639200194807e-08
	3.091848820249472e-05
	2.665257938501050e-07
	8.252901721920829e-07
	2.613914615989226e-07
 17	1.700000000000000e-11
	6.246101372677997e-08
	2.965642440309000e-05
	2.185418969993304e-07
	7.557710903306065e-07
	1.339264760040110e-07
 18	1.800000000000000e-11
	1.214813579014606e-08
	2.826924634283186e-05
	7.281941467774925e-08
	5.964298271614469e-07
	1.628219288583453e-08
 19	1.900000000000000e-11
	-4.834834068517714e-09
	2.657193040423610e-05
	1.295187145999795e-08
	5.138256115917200e-07
	-1.766205366976912e-08
 20	2.000000000000000e-11
	-7.743341227256496e-09
	2.404681891080715e-05
	1.753855118920014e-08
	4.833602850023506e-07
	-1.116514875922550e-08
 21	2.100000000000000e-11
	5.408244820069832e-05
	1.912909530186645e-05
	3.345514943199322e-08
	4.483674349125831e-07
	6.705036183309076e-07
 22	2.200000000000000e-11
	6.005348080845155e-05
	6.933511608706759e-06
	6.151610437410171e-08
	3.531873525952516e-07
	2.046779876981562e-06
 23	2.300000000000000e-11
	5.779127850590640e-05
	-2.469928301799088e-05
	1.263332241337343e-07
	1.077522843559449e-07
	2.724261681487738e-06
 24	2.400000000000000e-11
	5.707410621024167e-05
	-6.351486384536995e-05
	1.909511756188319e-07
	-4.660466033279397e-07
	2.503261060955254e-06
 25	2.500000000000000e-11
	5.765063020821999e-05
	-5.404127181405060e-05
	1.759446769790820e-07
	-1.188800793638667e-06
	2.352134300287850e-06
 26	2.600000000000000e-11
	5.790077473523680e-05
	-1.187469501136712e-05
	9.807988971457868e-08
	-1.122732917612763e-06
	2.448455926399982e-06
 27	2.700000000000000e-11
	5.802380754933397e-05
	2.415041011006838e-05
	5.877935515392680e-08
	-2.121990160351528e-07
	2.544408214053892e-06
 28	2.800000000000000e-11
	5.821261454325475e-05
	3.503127905950648e-05
	1.099549827883582e-07
	5.391805703072202e-07
	2.603837239010897e-06
 29	2.900000000000000e-11
	5.844674984798107e-05
	3.113111071084317e-05
	1.962527434944917e-07
	7.089920625672145e-07
	2.676319885965065e-06
 30	3.000000000000000e-11
	5.870118902037048e-05
	2.238533255056667e-05
	2.415011513575475e-07
	6.343558326776371e-07
	2.767211860788802e-06
 31	3.100000000000000e-11
	5.897931477874309e-05
	7.115852178093129e-06
	2.360844852842017e-07
	4.558619805389255e-07
	2.864848548829108e-06
 32	3.200000000000001e-11
	5.929006471195393e-05
	-2.664180557092047e-05
	2.191775707230535e-07
	1.219615286653177e-07
	2.966657324546867e-06
 33	3.300000000000001e-11
	5.964036597643472e-05
	-6.131728223938216e-05
	2.049644457473143e-07
	-4.970278923564868e-07
	3.077891863161674e-06
 34	3.400000000000001e-11
	6.003608654392691e-05
	-4.499485225739643e-05
	1.802950810589187e-07
	-1.153986469706417e-06
	3.203691620825623e-06
 35	3.500000000000001e-11
	6.048674987261125e-05
	-1.436511704856350e-06
	1.457403960493352e-07
	-9.457660664354383e-07
	3.346971835683497e-06
 36	3.600000000000002e-11
	6.100144451541101e-05
	3.047339975018097e-05
	1.393514824284582e-07
	-1.676119259858448e-09
	3.509397637697866e-06
 37	3.700000000000002e-11
	6.159889301560401e-05
	3.759211820513185e-05
	1.966920437687555e-07
	6.558375951936568e-07
	3.697822411880430e-06
 38	3.800000000000002e-11
	6.229680904752620e-05
	3.302454169046707e-05
	2.808562066601898e-07
	7.606532178564329e-07
	3.920469931310571e-06
 39	3.900000000000003e-11
	6.312296729344122e-05
	2.614084868185229e-05
	3.285913224830496e-07
	6.762026352018498e-07
	4.186114974444901e-06
 40	4.000000000000003e-11
	6.412001911190229e-05
	1.736181481721076e-05
	3.336481555897026e-07
	5.339574236403283e-07
	4.503648383501498e-06
 41	4.100000000000003e-11
	6.533237478517452e-05
	-4.633785342033804e-07
	3.338263014626650e-07
	3.293112412319633e-07
	4.882785295535220e-06
 42	4.200000000000004e-11
	6.685900056499814e-05
	-4.064979263415922e-05
	3.454978239231978e-07
	-4.210353449786349e-08
	5.353582172255464e-06
 43	4.300000000000004e-11
	6.879768981973432e-05
	-6.312185209218305e-05
	3.582105418798133e-07
	-7.287759741660528e-07
	5.946727326411818e-06
 44	4.400000000000004e-11
	7.138192982273552e-05
	-3.578336910972983e-05
	3.611919361344109e-07
	-1.221484655039137e-06
	6.729544462207335e-06
 45	4.500000000000004e-11
	7.487374649245184e-05
	8.389288464630716e-06
	3.707623088871247e-07
	-7.554884151067342e-07
	7.772734502080259e-06
 46	4.600000000000005e-11
	7.992008468509822e-05
	3.299990907791270e-05
	4.408677954515434e-07
	2.191732488908597e-07
	9.252268270946943e-06
 47	4.700000000000005e-11
	8.739412937507570e-05
	3.606979890405714e-05
	5.964160585072461e-07
	7.238058118296468e-07
	1.140519167063487e-05
 48	4.800000000000005e-11
	9.936678810584019e-05
	3.010498907278341e-05
	8.047395634091495e-07
	7.504592032651120e-07
	1.479801212882932e-05
 49	4.900000000000006e-11
	1.192650311398854e-04
	2.197446421915364e-05
	1.041778234254958e-06
	6.526396984662320e-07
	2.041478426100108e-05
 50	5.000000000000006e-11
	1.530757406950709e-04
	8.530396892582432e-06
	1.383639314405033e-06
	4.848966361678930e-07
	3.039225791192019e-05
 51	5.100000000000006e-11
	2.038061284290725e-04
	-2.331695075747720e-05
	2.005660527958549e-06
	2.019246067928525e-07
	4.914133590702103e-05
 52	5.200000000000007e-11
	2.385575389625884e-04
	-6.070437903663831e-05
	3.168849933390821e-06
	-3.354302714156071e-07
	8.274242205529372e-05
 53	5.300000000000007e-11
	1.838845464356212e-04
	-4.904163945230345e-05
	5.406203120285584e-06
	-9.544073315795363e-07
	1.408786522124431e-04
 54	5.400000000000007e-11
	1.362267023213158e-04
	-6.820129598812077e-06
	9.645895352315087e-06
	-7.493929371131368e-07
	2.441187046935089e-04
 55	5.500000000000008e-11
	1.888649076570728e-04
	2.741162376729316e-05
	1.802548673472306e-05
	4.144525569089554e-07
	3.305577304484526e-04
 56	5.600000000000008e-11
	1.565185101644443e-04
	3.717772664722508e-05
	3.273854990537521e-05
	1.605541356681705e-06
	2.094710843334724e-04
 57	5.700000000000008e-11
	3.880859206407997e-05
	3.312166971395221e-05
	5.640704366050782e-05
	2.603446663715137e-06
	1.976361929703461e-04
 58	5.800000000000008e-11
	4.552977749615909e-05
	2.601945219667194e-05
	9.772686863204983e-05
	3.971009282513602e-06
	3.176112072237946e-04
 59	5.900000000000008e-11
	1.023347701923449e-04
	1.647264543087993e-05
	1.590635847553202e-04
	6.373972111687352e-06
	1.520394872465237e-04
 60	6.000000000000008e-11
	7.929794275808702e-05
	-3.264092327835669e-06
	2.486037493284396e-04
	1.045774917529755e-05
	-9.263553097443736e-06
 61	6.100000000000007e-11
	4.345123863522023e-05
	-4.480319293302147e-05
	3.541289631218286e-04
	1.772720162628390e-05
	3.564272975657540e-05
 62	6.200000000000007e-11
	5.342455795503000e-05
	-6.130714626684759e-05
	2.395492725997068e-04
	3.049267034197829e-05
	7.468293387937294e-05
 63	6.300000000000007e-11
	6.948802840224796e-05
	-3.012572192082483e-05
	1.930488736900054e-04
	5.267292810504733e-05
	2.852978376017466e-05
 64	6.400000000000006e-11
	6.276350472429308e-05
	1.371539430248821e-05
	3.183649528054358e-04
	9.323997033186269e-05
	-6.929980544071654e-06
 65	6.500000000000006e-11
	5.279886495960375e-05
	3.614490904660357e-05
	1.673459312430515e-04
	1.552032633237509e-04
	8.171096805601375e-06
 66	6.600000000000006e-11
	5.539333570207772e-05
	3.895450058083173e-05
	-5.083203326462423e-06
	2.453188493662009e-04
	1.942642045976539e-05
 67	6.700000000000005e-11
	6.037088240215694e-05
	3.530261250055175e-05
	3.122270992605371e-05
	3.337257064825715e-04
	7.153110608675669e-06
 68	6.800000000000005e-11
	5.886482698424673e-05
	3.171681151567219e-05
	7.017225949501545e-05
	2.017238573283309e-04
	-1.471100461962720e-06
 69	6.900000000000005e-11
	5.602836079870188e-05
	2.487125098042574e-05
	2.550380570808747e-05
	1.304655949800951e-04
	3.307036406318456e-06
 70	7.000000000000004e-11
	5.672875987419514e-05
	3.804499097991354e-06
	-1.155165529758660e-05
	2.557819032021061e-04
	6.615612921840793e-06
 71	7.100000000000004e-11
	4.909467512627536e-06
	-2.150891585781434e-05
	3.789024598153236e-06
	2.487043481551189e-04
	2.248766053694680e-06
 72	7.200000000000004e-11
	-2.220694644842392e-06
	-6.907486918633902e-06
	1.837465144798423e-05
	5.504251871243981e-05
	-1.261462942329856e-06
 73	7.300000000000003e-11
	-9.200820637800760e-07
	2.640017688882407e-05
	9.868983435410541e-06
	7.197135474657269e-06
	-1.549967390874364e-07
 74	7.400000000000003e-11
	2.222794281353592e-07
	6.124817010007277e-05
	-1.526589784945709e-06
	3.805854913083462e-05
	1.279826477366106e-06
 75	7.500000000000003e-11
	3.351723091676510e-07
	8.644629375952162e-05
	-1.629510599033275e-06
	6.246586646569733e-05
	5.587691584607683e-07
 76	7.600000000000002e-11
	1.392711117192954e-07
	1.203213123457737e-04
	3.408922732309639e-06
	6.341760868878927e-05
	-3.765154002040418e-07
 77	7.700000000000002e-11
	-1.186494297484964e-07
	2.144324417469226e-04
	5.089606443411988e-06
	3.303985177286691e-05
	-1.561180448511084e-07
 78	7.800000000000001e-11
	-8.831237435807191e-08
	3.868801663049923e-04
	3.247488250070690e-06
	1.554850080773535e-05
	3.674621535866460e-07
 79	7.900000000000001e-11
	7.183317102317995e-08
	5.097339876614437e-04
	1.041200952132125e-06
	1.765042381155593e-05
	3.895789926351957e-07
 80	8.000000000000001e-11
	8.684579898430117e-08
	2.346872503626861e-04
	4.322961187057061e-07
	1.184622633132303e-05
	1.265027044393402e-07
 81	8.100000000000000e-11
	1.036587495923933e-08
	6.454889048347863e-05
	7.572084028278230e-07
	-2.129950500746465e-07
	-2.498565429032142e-08
 82	8.200000000000000e-11
	-2.292005789211477e-08
	6.780915475137185e-05
	4.564628399905342e-07
	-6.723961028169689e-06
	-1.587058889563974e-09
 83	8.300000000000000e-11
	-5.324094380473735e-09
	7.711599393037349e-05
	-3.598193943181761e-07
	-5.817901336487497e-06
	4.164329669108477e-08
 84	8.399999999999999e-11
	1.081668736856774e-08
	1.097579105809969e-04
	-6.844751200229122e-07
	-4.441998961804720e-06
	1.082422484323363e-08
 85	8.499999999999999e-11
	4.599773307144186e-09
	1.584427060436690e-04
	-4.350820902909159e-07
	-5.901083924675301e-06
	-4.496069443980297e-08
 86	8.599999999999999e-11
	-7.727452329928603e-09
	1.832271550545289e-04
	-2.721736325170379e-07
	-7.013514893949834e-06
	-5.235242124896586e-08
 87	8.699999999999998e-11
	-9.409262869876050e-09
	1.796675131611785e-04
	-3.823367193019871e-07
	-3.897926216837939e-06
	-2.391897025019904e-08
 88	8.799999999999998e-11
	-3.015361766195748e-09
	2.342427596633057e-04
	-3.767537257814109e-07
	2.485177423120563e-06
	-1.327994280470698e-08
 89	8.899999999999998e-11
	2.225306045039449e-10
	3.771481740569849e-04
	-1.752240304850908e-08
	7.212095964837655e-06
	-2.168995534414456e-08
 90	8.999999999999997e-11
	-1.907619000489349e-09
	3.639264861500994e-04
	4.458181185986005e-07
	9.450338960599549e-06
	-1.321457999662196e-08
 91	9.099999999999997e-11
	-2.358634113902597e-09
	1.390274474042163e-04
	6.969701148543541e-07
	8.432542843725517e-06
	1.879782194816005e-08
 92	9.199999999999997e-11
	2.277636948297345e-09
	5.111033718768529e-05
	6.466096973357283e-07
	2.050514519226664e-06
	4.734971439458027e-08
 93	9.299999999999996e-11
	7.110664009017948e-09
	4.140436697264882e-05
	3.240998505136675e-07
	-3.093949471792123e-06
	5.135782787184463e-08
 94	9.399999999999996e-11
	7.277997938048642e-09
	4.150959650956465e-05
	-1.254256906340938e-07
	-2.447791160338464e-06
	3.071172232896607e-08
 95	9.499999999999996e-11
	3.534445249753508e-09
	5.217589764452231e-05
	-3.245973391350711e-07
	-1.041299200402040e-06
	-8.306842914340828e-10
 96	9.599999999999995e-11
	-1.065333081395542e-09
	6.490448182775307e-05
	-1.822844672659124e-07
	-1.364849434981596e-06
	-2.419292841257733e-08
 97	9.699999999999995e-11
	-3.879357243696019e-09
	8.522167950523630e-05
	-3.929234202238139e-08
	-2.343691225066909e-06
	-2.316292275758493e-08
 98	9.799999999999995e-11
	-3.475759691320514e-09
	1.228550505654011e-04
	-9.007432667226062e-08
	-3.958972941219542e-06
	-6.729971100084218e-09
 99	9.899999999999994e-11
	-7.532688142763614e-10
	1.730224900587717e-04
	-2.374676124054272e-07
	-6.098656548077592e-06
	1.325562302019165e-10
 100	9.999999999999994e-11
	7.197696882280225e-10
	2.089411660239314e-04
	-3.795087308924056e-07
	-6.564662807680848e-06
	-9.535986679672262e-09
 101	1.009999999999999e-10
	-8.932339209170145e-10
	2.658217440192441e-04
	-4.475149592157924e-07
	-2.072732989292080e-06
	-2.352449935527326e-08
 102	1.019999999999999e-10
	-3.407906268685867e-09
	4.263746938168154e-04
	-2.828678475315591e-07
	5.573392631887320e-06
	-3.045025081271126e-08
 103	1.029999999999999e-10
	-4.288738891405918e-09
	4.811310309670676e-04
	1.882156276791749e-07
	1.140427826119563e-05
	-2.419224333557772e-08
 104	1.039999999999999e-10
	-2.915319497087039e-09
	1.798533598727296e-04
	7.171311942583181e-07
	1.143337532567477e-05
	9.732548222783388e-10
 105	1.049999999999999e-10
	6.300422587916564e-10
	6.209193188571837e-05
	8.953622629847353e-07
	3.008130090730652e-06
	3.843043257754826e-08
 106	1.059999999999999e-10
	5.531215644114976e-09
	7.027389428698161e-05
	5.100473341754670e-07
	-5.491906615021665e-06
	6.309622477889226e-08
 107	1.069999999999999e-10
	8.778169112969018e-09
	8.358192996773701e-05
	-2.016553000867353e-07
	-6.018559567613227e-06
	5.100929752514522e-08
 108	1.079999999999999e-10
	6.712631941938932e-09
	1.247861863142945e-04
	-6.028014071406287e-07
	-4.614699350685817e-06
	4.097363179774885e-09
 109	1.089999999999999e-10
	-1.174245746808863e-10
	1.793957967358030e-04
	-4.888418485209805e-07
	-6.171402824497684e-06
	-4.130949394153403e-08
 110	1.099999999999999e-10
	-6.561371146275962e-09
	2.160625750123500e-04
	-3.239756056273646e-07
	-6.710528835140950e-06
	-4.867478564923739e-08
 111	1.109999999999999e-10
	-7.479030245617732e-09
	2.750809049688419e-04
	-3.726223001514863e-07
	-2.073021456535785e-06
	-2.855373596973887e-08
 112	1.119999999999999e-10
	-3.655233052914104e-09
	4.329020829511932e-04
	-2.877145263015852e-07
	5.909485234650570e-06
	-1.627493001093276e-08
 113	1.129999999999999e-10
	-8.768159521927397e-10
	4.320908477383214e-04
	1.823870059922459e-07
	1.164654758633648e-05
	-1.686621930531608e-08
 114	1.139999999999999e-10
	-1.240124458779029e-09
	1.027775573440605e-04
	7.330893244041689e-07
	1.048114734135561e-05
	-1.389526013914660e-09
 115	1.149999999999999e-10
	-3.280530517539486e-10
	-1.486189437071299e-05
	8.813842396996732e-07
	1.141560095490780e-06
	3.666730353834379e-08
 116	1.159999999999999e-10
	4.674358184094001e-09
	5.517100665054724e-06
	4.090422345956968e-07
	-5.851927000192068e-06
	6.338862574022740e-08
 117	1.169999999999999e-10
	8.904782928030664e-09
	2.616006664858223e-05
	-2.904627667220747e-07
	-3.165389231850263e-06
	4.720928235399462e-08
 118	1.179999999999999e-10
	6.567118651146706e-09
	4.345631498642447e-05
	-5.059817407497668e-07
	1.021990553455205e-06
	-2.888400265671899e-09
 119	1.189999999999999e-10
	-1.050531282156171e-09
	5.028287995164152e-05
	-1.382403386930699e-07
	1.248387955796537e-06
	-4.119489892395208e-08
 120	1.199999999999999e-10
	-6.646183745518124e-09
	5.468452947786453e-05
	1.862717923402189e-07
	-1.599918575128558e-07
	-3.089081126007542e-08
 121	1.209999999999999e-10
	-5.058955373190581e-09
	6.689122846023949e-05
	1.243624187100918e-07
	-1.554710272846164e-06
	5.236223760287138e-09
 122	1.219999999999999e-10
	1.080742124019377e-09
	9.196775607914323e-05
	-8.646657409460005e-08
	-2.989085878850620e-06
	2.025286358857617e-08
 123	1.229999999999999e-10
	4.019895042788215e-09
	1.345808676769294e-04
	-2.149157691780723e-07
	-4.693568654049758e-06
	4.472541330438633e-09
 124	1.239999999999999e-10
	1.155413307250429e-09
	1.835273622165677e-04
	-2.988676647970169e-07
	-6.500624005346690e-06
	-1.528025562415570e-08
 125	1.249999999999999e-10
	-2.791365264701698e-09
	2.169813827793014e-04
	-4.010710200476908e-07
	-5.888222899756277e-06
	-2.255135359238910e-08
 126	1.259999999999998e-10
	-3.802651290957382e-09
	2.903333482232579e-04
	-4.332128311651283e-07
	-3.612645242181032e-07
	-2.499186547772454e-08
 127	1.269999999999998e-10
	-3.139396917348488e-09
	4.668791508946791e-04
	-1.884376337443082e-07
	7.244287916697061e-06
	-2.732303316397310e-08
 128	1.279999999999998e-10
	-3.054093637825324e-09
	4.289736212688846e-04
	3.248674865398069e-07
	1.216822209570062e-05
	-1.951829803408029e-08
 129	1.289999999999998e-10
	-2.207274856546942e-09
	1.302859785024943e-04
	7.978320872155030e-07
	1.002762193154639e-05
	9.259497796868342e-09
 130	1.299999999999998e-10
	1.389905510613579e-09
	6.164694358360720e-05
	8.625097207609853e-07
	4.569362060325227e-07
	4.663760930271451e-08
 131	1.309999999999998e-10
	6.529414742278877e-09
	7.245151432757486e-05
	3.524628008825731e-07
	-6.275877478619316e-06
	6.376650028173910e-08
 132	1.319999999999998e-10
	8.898011418874743e-09
	9.065029838900457e-05
	-3.451755429799854e-07
	-5.476843242317443e-06
	4.189367014006947e-08
 133	1.329999999999998e-10
	5.449124389241135e-09
	1.375546118635548e-04
	-6.162125037129894e-07
	-4.739096376404754e-06
	-8.212616885666743e-09
 134	1.339999999999998e-10
	-1.925814062058281e-09
	1.897094957691114e-04
	-4.337708773208449e-07
	-6.597610280225306e-06
	-4.628892266109603e-08
 135	1.349999999999998e-10
	-7.455803553430025e-09
	2.239730170214445e-04
	-3.184477344634734e-07
	-6.229184979844003e-06
	-4.552527910666642e-08
 136	1.359999999999998e-10
	-6.782017307901510e-09
	3.054500105992895e-04
	-3.796509087692699e-07
	-2.613071104024671e-07
	-2.415160490279606e-08
 137	1.369999999999998e-10
	-2.683923533854762e-09
	4.737733369424156e-04
	-2.120534571542103e-07
	7.691607849357584e-06
	-1.607986557056385e-08
 138	1.379999999999998e-10
	-7.962801078693860e-10
	3.633892911767394e-04
	3.253092738601156e-07
	1.215825658987286e-05
	-1.552900410684835e-08
 139	1.389999999999998e-10
	-1.383180452285641e-09
	4.562986872367184e-05
	8.276873473077608e-07
	8.991161534202937e-06
	6.059121874675027e-09
 140	1.399999999999998e-10
	5.276983194663775e-10
	-1.449060149663506e-05
	8.301456069426265e-07
	-1.369963963273231e-06
	4.600240605962499e-08
 141	1.409999999999998e-10
	6.002129991065342e-09
	7.858705401321751e-06
	2.389134867635182e-07
	-6.023068733758332e-06
	6.370892082446250e-08
 142	1.419999999999998e-10
	9.128218887139139e-09
	2.939416757531733e-05
	-4.178428634779251e-07
	-2.060228491046853e-06
	3.728478526391077e-08
 143	1.429999999999998e-10
	5.061585343413135e-09
	4.548159574947846e-05
	-4.682165350566279e-07
	1.353523469594382e-06
	-1.491590807066534e-08
 144	1.439999999999998e-10
	-2.879406101855372e-09
	5.077710396114483e-05
	-4.126123137728032e-08
	1.037951627100854e-06
	-4.343049977838057e-08
 145	1.449999999999998e-10
	-7.112829879645285e-09
	5.653667692916985e-05
	2.098369762286579e-07
	-3.871141292869478e-07
	-2.397894198896069e-08
 146	1.459999999999998e-10
	-3.797746325084504e-09
	7.140392288411011e-05
	8.423696250428730e-08
	-1.835292428075112e-06
	1.145410385663410e-08
 147	1.469999999999998e-10
	2.354721355713368e-09
	9.977318312557628e-05
	-1.200633690243271e-07
	-3.333144607354837e-06
	1.965926117859875e-08
 148	1.479999999999998e-10
	3.837403631113239e-09
	1.462754021385187e-04
	-2.337021256173722e-07
	-5.140024236104449e-06
	-1.357632635402635e-11
 149	1.489999999999998e-10
	1.960285569129384e-10
	1.921447933092940e-04
	-3.227109115494025e-07
	-6.735829709037419e-06
	-1.779685052950201e-08
 150	1.499999999999998e-10
	-3.276150544894105e-09
	2.265797871122544e-04
	-4.208855155421120e-07
	-5.044559264766664e-06
	-2.332756005657112e-08
 151	1.509999999999998e-10
	-3.687479378037115e-09
	3.259070894678138e-04
	-4.019194376209061e-07
	1.461752438653214e-06
	-2.593407825187814e-08
 152	1.519999999999998e-10
	-3.088501370398986e-09
	4.991311062030539e-04
	-8.958962866350190e-08
	8.736194837401740e-06
	-2.699878536391671e-08
 153	1.529999999999998e-10
	-3.026195784322199e-09
	3.519816236460759e-04
	4.533600393991439e-07
	1.241834232250679e-05
	-1.442486890223586e-08
 154	1.539999999999998e-10
	-1.635745494605423e-09
	9.309421956588397e-05
	8.598189561700571e-07
	8.362951187848184e-06
	1.786957462653441e-08
 155	1.549999999999997e-10
	2.603346106017293e-09
	6.444484095039124e-05
	7.835765231687212e-07
	-1.713379539297425e-06
	5.310169887131051e-08
 156	1.559999999999997e-10
	7.514769235194124e-09
	7.450077922974705e-05
	1.891979119648270e-07
	-6.683828557820423e-06
	6.291431145475691e-08
 157	1.569999999999997e-10
	8.580968418522062e-09
	9.934735828840845e-05
	-4.543947187990964e-07
	-5.062088752645985e-06
	3.160304336133448e-08
 158	1.579999999999997e-10
	3.955071570373230e-09
	1.506197467593151e-04
	-6.009153240213003e-07
	-5.054700541382469e-06
	-1.980371218240599e-08
 159	1.589999999999997e-10
	-3.539093881537588e-09
	1.988511375872265e-04
	-3.879469142597339e-07
	-6.887542911839924e-06
	-4.952506243916454e-08
 160	1.599999999999997e-10
	-7.808917806344657e-09
	2.348657301847779e-04
	-3.319286499716721e-07
	-5.278778807519856e-06
	-4.073183647258342e-08
 161	1.609999999999997e-10
	-5.980916111701852e-09
	3.401623456188672e-04
	-3.764663897623916e-07
	1.592150664613254e-06
	-2.051674256743892e-08
 162	1.619999999999997e-10
	-1.965888222564445e-09
	4.898648599883358e-04
	-1.073258508544269e-07
	9.164873110683544e-06
	-1.650475284219968e-08
 163	1.629999999999997e-10
	-8.464963711404789e-10
	2.868452499092862e-04
	4.629629085046892e-07
	1.228816755329794e-05
	-1.299973505190164e-08
 164	1.639999999999997e-10
	-1.267096293626616e-09
	1.840157665523722e-05
	8.773200854768081e-07
	6.873032552733468e-06
	1.504390753569236e-08
 165	1.649999999999997e-10
	1.672904046743726e-09
	-1.262028417124665e-05
	7.348229932465980e-07
	-3.355402081546030e-06
	5.344335569354329e-08
 166	1.659999999999997e-10
	7.205427385885454e-09
	8.467183414686829e-06
	6.875775576011670e-08
	-5.947516232581352e-06
	6.222307484358866e-08
 167	1.669999999999997e-10
	8.769164039132767e-09
	3.173525066838832e-05
	-4.962357777554731e-07
	-1.257307306032812e-06
	2.570013073691629e-08
 168	1.679999999999997e-10
	3.390347993508484e-09
	4.687403811760530e-05
	-4.177619506877248e-07
	1.537309018767305e-06
	-2.624461141858542e-08
 169	1.689999999999997e-10
	-4.446684933681937e-09
	5.144289229302858e-05
	3.389412068232239e-08
	9.055168104105980e-07
	-4.370837895094592e-08
 170	1.699999999999997e-10
	-7.240899752621719e-09
	5.880283171867939e-05
	2.170207953060967e-07
	-5.562070345566099e-07
	-1.651618305068613e-08
 171	1.709999999999997e-10
	-5.413675345604479e-05
	7.625338144261009e-05
	4.686202458651342e-08
	-2.102573199919624e-06
	-6.525724431083451e-07
 172	1.719999999999997e-10
	-6.020264654224894e-05
	1.092215718665410e-04
	-1.693293877278212e-07
	-3.702243054691518e-06
	-1.998005206363020e-06
 173	1.729999999999997e-10
	-5.773646103473848e-05
	1.580295932629642e-04
	-3.506400396380638e-07
	-5.590290482556694e-06
	-2.591274052440293e-06
 174	1.739999999999997e-10
	-5.667921277833596e-05
	1.992569696954408e-04
	-5.208690750501824e-07
	-6.743726518530256e-06
	-2.239689377931928e-06
 175	1.749999999999997e-10
	-5.702494358007498e-05
	2.392095072858902e-04
	-6.128502344718007e-07
	-3.872376951612376e-06
	-1.994632406611289e-06
 176	1.759999999999997e-10
	-5.702746125248393e-05
	3.635400712541295e-04
	-4.976136152783083e-07
	3.260654641196452e-06
	-2.030374278974728e-06
 177	1.769999999999997e-10
	-5.692616233086844e-05
	5.058969272648427e-04
	-8.694435766705973e-08
	9.951146346484978e-06
	-2.039931900697446e-06
 178	1.779999999999997e-10
	-5.686431876496197e-05
	2.768009804529568e-04
	4.486837137428412e-07
	1.230546280016729e-05
	-1.979351437406365e-06
 179	1.789999999999997e-10
	-5.680017991860687e-05
	7.473366247016330e-05
	7.579871035604784e-07
	6.224517791888890e-06
	-1.909679331582706e-06
 180	1.799999999999997e-10
	-5.675172831042728e-05
	6.740476356423734e-05
	5.664806113260183e-07
	-3.755470119816573e-06
	-1.854331458035876e-06
 181	1.809999999999997e-10
	-5.671359522909202e-05
	7.775177586110820e-05
	-1.013338191176680e-07
	-6.514290592857588e-06
	-1.831758618330372e-06
 182	1.819999999999997e-10
	-5.668259546950153e-05
	1.090768641496032e-04
	-6.658359684619055e-07
	-4.731859693631976e-06
	-1.845669496415975e-06
 183	1.829999999999997e-10
	-5.666417964680956e-05
	1.632445894185188e-04
	-6.804117680430106e-07
	-5.520589268686877e-06
	-1.871367471284554e-06
 184	1.839999999999996e-10
	-5.665374464007999e-05
	2.067690830254005e-04
	-4.694058549009237e-07
	-7.007659597336608e-06
	-1.868746248753088e-06
 185	1.849999999999996e-10
	-5.664543550299243e-05
	2.493024173057254e-04
	-4.634694348351067e-07
	-4.123965258636754e-06
	-1.831468366504431e-06
 186	1.859999999999996e-10
	-5.663947716937866e-05
	3.832245365249379e-04
	-4.638156821974261e-07
	3.497890202055304e-06
	-1.793285198941710e-06
 187	1.869999999999996e-10
	-5.664083965577278e-05
	4.971315488792462e-04
	-1.069921791477199e-07
	1.054566100593992e-05
	-1.772698161194577e-06
 188	1.879999999999996e-10
	-5.665329957467814e-05
	2.111499131211032e-04
	4.804419482165618e-07
	1.191922644014125e-05
	-1.745702772862512e-06
 189	1.889999999999996e-10
	-5.667265065042772e-05
	-5.149732993290597e-07
	8.043189574916832e-07
	4.683459799184412e-06
	-1.694284254898919e-06
 190	1.899999999999996e-10
	-5.669593822558374e-05
	-1.350556015331742e-05
	5.111903259282179e-07
	-5.066773632096585e-06
	-1.641707723868880e-06
 191	1.909999999999996e-10
	-5.672725493375701e-05
	6.223417455843418e-06
	-2.097200501262113e-07
	-5.537722830953753e-06
	-1.627992920006559e-06
 192	1.919999999999996e-10
	-5.677210726013754e-05
	3.299279484402027e-05
	-6.808107909250150e-07
	-7.860546820193906e-07
	-1.654676875969456e-06
 193	1.929999999999996e-10
	-5.683172301916646e-05
	4.709638004957284e-05
	-4.576903556033812e-07
	1.398237693260540e-06
	-1.684071123828407e-06
 194	1.939999999999996e-10
	-5.689948554165717e-05
	5.238849045896068e-05
	-1.597721245997869e-08
	8.948818210678036e-07
	-1.672466243014001e-06
 195	1.949999999999996e-10
	-5.697130918447698e-05
	6.238081400523004e-05
	9.984009397964540e-08
	-6.370346615148715e-07
	-1.620964124924474e-06
 196	1.959999999999996e-10
	-5.704978891970296e-05
	8.322342722900627e-05
	-7.095570172461839e-08
	-2.378224756826089e-06
	-1.575999614150193e-06
 197	1.969999999999996e-10
	-5.714266750312000e-05
	1.206898654477778e-04
	-2.565662281458385e-07
	-4.148087918398849e-06
	-1.564525656142467e-06
 198	1.979999999999996e-10
	-5.725507233850685e-05
	1.702923693000937e-04
	-3.754884106764100e-07
	-6.053445397567067e-06
	-1.568944051647385e-06
 199	1.989999999999996e-10
	-5.738378300284762e-05
	2.057483421288828e-04
	-4.788872070332535e-07
	-6.507646114009142e-06
	-1.564348907555594e-06
 200	1.999999999999996e-10
	-5.752735587474523e-05
	2.588308684602816e-04
	-5.320228077493616e-07
	-2.180905734376778e-06
	-1.549295605633595e-06
 201	2.009999999999996e-10
	-5.768792296405440e-05
	4.136241447261444e-04
	-3.748257823702232e-07
	5.268122014006631e-06
	-1.531637205163561e-06
 202	2.019999999999996e-10
	-5.787135359303096e-05
	4.901206745055239e-04
	7.927758112236452e-08
	1.109333695204020e-05
	-1.506179092813948e-06
 203	2.029999999999996e-10
	-5.808053376389695e-05
	1.965551576503826e-04
	5.997927482183665e-07
	1.164921130634348e-05
	-1.462254103528275e-06
 204	2.039999999999996e-10
	-5.831879863440895e-05
	6.384883985867997e-05
	7.944000239292889e-07
	3.666347591527539e-06
	-1.404387285444778e-06
 205	2.049999999999996e-10
	-5.859200159999548e-05
	6.984280711493513e-05
	4.485045615354290e-07
	-5.201688216021277e-06
	-1.356739034656911e-06
 206	2.059999999999996e-10
	-5.891158164540060e-05
	8.214009888926781e-05
	-2.495007192816082e-07
	-6.165161151747118e-06
	-1.341554262869706e-06
 207	2.069999999999996e-10
	-5.929123055481536e-05